# vtk DataFile Version 4.0
vtk output
ASCII
DATASET UNSTRUCTURED_GRID
POINTS 604 float
5.5000000e+00 5.9700000e+00 0.0000000e+00 
5.5000000e+00 5.9900000e+00 0.0000000e+00 
5.5266667e+00 5.9700000e+00 0.0000000e+00 
5.5266667e+00 5.9900000e+00 0.0000000e+00 
5.5000000e+00 6.0100000e+00 0.0000000e+00 
5.5266667e+00 6.0100000e+00 0.0000000e+00 
5.5533333e+00 5.9700000e+00 0.0000000e+00 
5.5533333e+00 5.9900000e+00 0.0000000e+00 
5.5000000e+00 6.0300000e+00 0.0000000e+00 
5.5266667e+00 6.0300000e+00 0.0000000e+00 
5.5533333e+00 6.0100000e+00 0.0000000e+00 
5.5800000e+00 5.9700000e+00 0.0000000e+00 
5.5533333e+00 6.0300000e+00 0.0000000e+00 
5.5800000e+00 5.9900000e+00 0.0000000e+00 
5.5800000e+00 6.0100000e+00 0.0000000e+00 
5.5800000e+00 6.0300000e+00 0.0000000e+00 
5.6066667e+00 5.9700000e+00 0.0000000e+00 
5.6066667e+00 5.9900000e+00 0.0000000e+00 
5.6066667e+00 6.0100000e+00 0.0000000e+00 
5.6066667e+00 6.0300000e+00 0.0000000e+00 
5.6333333e+00 5.9700000e+00 0.0000000e+00 
5.6333333e+00 5.9900000e+00 0.0000000e+00 
5.6333333e+00 6.0100000e+00 0.0000000e+00 
5.6333333e+00 6.0300000e+00 0.0000000e+00 
5.6600000e+00 5.9700000e+00 0.0000000e+00 
5.6600000e+00 5.9900000e+00 0.0000000e+00 
5.6600000e+00 6.0100000e+00 0.0000000e+00 
5.6600000e+00 6.0300000e+00 0.0000000e+00 
5.6866667e+00 5.9700000e+00 0.0000000e+00 
5.6866667e+00 5.9900000e+00 0.0000000e+00 
5.6866667e+00 6.0100000e+00 0.0000000e+00 
5.6866667e+00 6.0300000e+00 0.0000000e+00 
5.7133333e+00 5.9700000e+00 0.0000000e+00 
5.7133333e+00 5.9900000e+00 0.0000000e+00 
5.7133333e+00 6.0100000e+00 0.0000000e+00 
5.7133333e+00 6.0300000e+00 0.0000000e+00 
5.7400000e+00 5.9700000e+00 0.0000000e+00 
5.7400000e+00 5.9900000e+00 0.0000000e+00 
5.7400000e+00 6.0100000e+00 0.0000000e+00 
5.7400000e+00 6.0300000e+00 0.0000000e+00 
5.7666667e+00 5.9700000e+00 0.0000000e+00 
5.7666667e+00 5.9900000e+00 0.0000000e+00 
5.7666667e+00 6.0100000e+00 0.0000000e+00 
5.7666667e+00 6.0300000e+00 0.0000000e+00 
5.7933333e+00 5.9700000e+00 0.0000000e+00 
5.7933333e+00 5.9900000e+00 0.0000000e+00 
5.7933333e+00 6.0100000e+00 0.0000000e+00 
5.7933333e+00 6.0300000e+00 0.0000000e+00 
5.8200000e+00 5.9700000e+00 0.0000000e+00 
5.8200000e+00 5.9900000e+00 0.0000000e+00 
5.8200000e+00 6.0100000e+00 0.0000000e+00 
5.8200000e+00 6.0300000e+00 0.0000000e+00 
5.8466667e+00 5.9700000e+00 0.0000000e+00 
5.8466667e+00 5.9900000e+00 0.0000000e+00 
5.8466667e+00 6.0100000e+00 0.0000000e+00 
5.8466667e+00 6.0300000e+00 0.0000000e+00 
5.8733333e+00 5.9700000e+00 0.0000000e+00 
5.8733333e+00 5.9900000e+00 0.0000000e+00 
5.8733333e+00 6.0100000e+00 0.0000000e+00 
5.8733333e+00 6.0300000e+00 0.0000000e+00 
5.9000000e+00 5.9700000e+00 0.0000000e+00 
5.9000000e+00 5.9900000e+00 0.0000000e+00 
5.9000000e+00 6.0100000e+00 0.0000000e+00 
5.9000000e+00 6.0300000e+00 0.0000000e+00 
5.9266667e+00 5.9700000e+00 0.0000000e+00 
5.9266667e+00 5.9900000e+00 0.0000000e+00 
5.9266667e+00 6.0100000e+00 0.0000000e+00 
5.9266667e+00 6.0300000e+00 0.0000000e+00 
5.9533333e+00 5.9700000e+00 0.0000000e+00 
5.9533333e+00 5.9900000e+00 0.0000000e+00 
5.9533333e+00 6.0100000e+00 0.0000000e+00 
5.9533333e+00 6.0300000e+00 0.0000000e+00 
5.9800000e+00 5.9700000e+00 0.0000000e+00 
5.9800000e+00 5.9900000e+00 0.0000000e+00 
5.9800000e+00 6.0100000e+00 0.0000000e+00 
5.9800000e+00 6.0300000e+00 0.0000000e+00 
6.0066667e+00 5.9700000e+00 0.0000000e+00 
6.0066667e+00 5.9900000e+00 0.0000000e+00 
6.0066667e+00 6.0100000e+00 0.0000000e+00 
6.0066667e+00 6.0300000e+00 0.0000000e+00 
6.0333333e+00 5.9700000e+00 0.0000000e+00 
6.0333333e+00 5.9900000e+00 0.0000000e+00 
6.0333333e+00 6.0100000e+00 0.0000000e+00 
6.0333333e+00 6.0300000e+00 0.0000000e+00 
6.0600000e+00 5.9700000e+00 0.0000000e+00 
6.0600000e+00 5.9900000e+00 0.0000000e+00 
6.0600000e+00 6.0100000e+00 0.0000000e+00 
6.0600000e+00 6.0300000e+00 0.0000000e+00 
6.0866667e+00 5.9700000e+00 0.0000000e+00 
6.0866667e+00 5.9900000e+00 0.0000000e+00 
6.0866667e+00 6.0100000e+00 0.0000000e+00 
6.0866667e+00 6.0300000e+00 0.0000000e+00 
6.1133333e+00 5.9700000e+00 0.0000000e+00 
6.1133333e+00 5.9900000e+00 0.0000000e+00 
6.1133333e+00 6.0100000e+00 0.0000000e+00 
6.1133333e+00 6.0300000e+00 0.0000000e+00 
6.1400000e+00 5.9700000e+00 0.0000000e+00 
6.1400000e+00 5.9900000e+00 0.0000000e+00 
6.1400000e+00 6.0100000e+00 0.0000000e+00 
6.1400000e+00 6.0300000e+00 0.0000000e+00 
6.1666667e+00 5.9700000e+00 0.0000000e+00 
6.1666667e+00 5.9900000e+00 0.0000000e+00 
6.1666667e+00 6.0100000e+00 0.0000000e+00 
6.1666667e+00 6.0300000e+00 0.0000000e+00 
6.1933333e+00 5.9700000e+00 0.0000000e+00 
6.1933333e+00 5.9900000e+00 0.0000000e+00 
6.1933333e+00 6.0100000e+00 0.0000000e+00 
6.1933333e+00 6.0300000e+00 0.0000000e+00 
6.2200000e+00 5.9700000e+00 0.0000000e+00 
6.2200000e+00 5.9900000e+00 0.0000000e+00 
6.2200000e+00 6.0100000e+00 0.0000000e+00 
6.2200000e+00 6.0300000e+00 0.0000000e+00 
6.2466667e+00 5.9700000e+00 0.0000000e+00 
6.2466667e+00 5.9900000e+00 0.0000000e+00 
6.2466667e+00 6.0100000e+00 0.0000000e+00 
6.2466667e+00 6.0300000e+00 0.0000000e+00 
6.2733333e+00 5.9700000e+00 0.0000000e+00 
6.2733333e+00 5.9900000e+00 0.0000000e+00 
6.2733333e+00 6.0100000e+00 0.0000000e+00 
6.2733333e+00 6.0300000e+00 0.0000000e+00 
6.3000000e+00 5.9700000e+00 0.0000000e+00 
6.3000000e+00 5.9900000e+00 0.0000000e+00 
6.3000000e+00 6.0100000e+00 0.0000000e+00 
6.3000000e+00 6.0300000e+00 0.0000000e+00 
6.3266667e+00 5.9700000e+00 0.0000000e+00 
6.3266667e+00 5.9900000e+00 0.0000000e+00 
6.3266667e+00 6.0100000e+00 0.0000000e+00 
6.3266667e+00 6.0300000e+00 0.0000000e+00 
6.3533333e+00 5.9700000e+00 0.0000000e+00 
6.3533333e+00 5.9900000e+00 0.0000000e+00 
6.3533333e+00 6.0100000e+00 0.0000000e+00 
6.3533333e+00 6.0300000e+00 0.0000000e+00 
6.3800000e+00 5.9700000e+00 0.0000000e+00 
6.3800000e+00 5.9900000e+00 0.0000000e+00 
6.3800000e+00 6.0100000e+00 0.0000000e+00 
6.3800000e+00 6.0300000e+00 0.0000000e+00 
6.4066667e+00 5.9700000e+00 0.0000000e+00 
6.4066667e+00 5.9900000e+00 0.0000000e+00 
6.4066667e+00 6.0100000e+00 0.0000000e+00 
6.4066667e+00 6.0300000e+00 0.0000000e+00 
6.4333333e+00 5.9700000e+00 0.0000000e+00 
6.4333333e+00 5.9900000e+00 0.0000000e+00 
6.4333333e+00 6.0100000e+00 0.0000000e+00 
6.4333333e+00 6.0300000e+00 0.0000000e+00 
6.4600000e+00 5.9700000e+00 0.0000000e+00 
6.4600000e+00 5.9900000e+00 0.0000000e+00 
6.4600000e+00 6.0100000e+00 0.0000000e+00 
6.4600000e+00 6.0300000e+00 0.0000000e+00 
6.4866667e+00 5.9700000e+00 0.0000000e+00 
6.4866667e+00 5.9900000e+00 0.0000000e+00 
6.4866667e+00 6.0100000e+00 0.0000000e+00 
6.4866667e+00 6.0300000e+00 0.0000000e+00 
6.5133333e+00 5.9700000e+00 0.0000000e+00 
6.5133333e+00 5.9900000e+00 0.0000000e+00 
6.5133333e+00 6.0100000e+00 0.0000000e+00 
6.5133333e+00 6.0300000e+00 0.0000000e+00 
6.5400000e+00 5.9700000e+00 0.0000000e+00 
6.5400000e+00 5.9900000e+00 0.0000000e+00 
6.5400000e+00 6.0100000e+00 0.0000000e+00 
6.5400000e+00 6.0300000e+00 0.0000000e+00 
6.5666667e+00 5.9700000e+00 0.0000000e+00 
6.5666667e+00 5.9900000e+00 0.0000000e+00 
6.5666667e+00 6.0100000e+00 0.0000000e+00 
6.5666667e+00 6.0300000e+00 0.0000000e+00 
6.5933333e+00 5.9700000e+00 0.0000000e+00 
6.5933333e+00 5.9900000e+00 0.0000000e+00 
6.5933333e+00 6.0100000e+00 0.0000000e+00 
6.5933333e+00 6.0300000e+00 0.0000000e+00 
6.6200000e+00 5.9700000e+00 0.0000000e+00 
6.6200000e+00 5.9900000e+00 0.0000000e+00 
6.6200000e+00 6.0100000e+00 0.0000000e+00 
6.6200000e+00 6.0300000e+00 0.0000000e+00 
6.6466667e+00 5.9700000e+00 0.0000000e+00 
6.6466667e+00 5.9900000e+00 0.0000000e+00 
6.6466667e+00 6.0100000e+00 0.0000000e+00 
6.6466667e+00 6.0300000e+00 0.0000000e+00 
6.6733333e+00 5.9700000e+00 0.0000000e+00 
6.6733333e+00 5.9900000e+00 0.0000000e+00 
6.6733333e+00 6.0100000e+00 0.0000000e+00 
6.6733333e+00 6.0300000e+00 0.0000000e+00 
6.7000000e+00 5.9700000e+00 0.0000000e+00 
6.7000000e+00 5.9900000e+00 0.0000000e+00 
6.7000000e+00 6.0100000e+00 0.0000000e+00 
6.7000000e+00 6.0300000e+00 0.0000000e+00 
6.7266667e+00 5.9700000e+00 0.0000000e+00 
6.7266667e+00 5.9900000e+00 0.0000000e+00 
6.7266667e+00 6.0100000e+00 0.0000000e+00 
6.7266667e+00 6.0300000e+00 0.0000000e+00 
6.7533333e+00 5.9700000e+00 0.0000000e+00 
6.7533333e+00 5.9900000e+00 0.0000000e+00 
6.7533333e+00 6.0100000e+00 0.0000000e+00 
6.7533333e+00 6.0300000e+00 0.0000000e+00 
6.7800000e+00 5.9700000e+00 0.0000000e+00 
6.7800000e+00 5.9900000e+00 0.0000000e+00 
6.7800000e+00 6.0100000e+00 0.0000000e+00 
6.7800000e+00 6.0300000e+00 0.0000000e+00 
6.8066667e+00 5.9700000e+00 0.0000000e+00 
6.8066667e+00 5.9900000e+00 0.0000000e+00 
6.8066667e+00 6.0100000e+00 0.0000000e+00 
6.8066667e+00 6.0300000e+00 0.0000000e+00 
6.8333333e+00 5.9700000e+00 0.0000000e+00 
6.8333333e+00 5.9900000e+00 0.0000000e+00 
6.8333333e+00 6.0100000e+00 0.0000000e+00 
6.8333333e+00 6.0300000e+00 0.0000000e+00 
6.8600000e+00 5.9700000e+00 0.0000000e+00 
6.8600000e+00 5.9900000e+00 0.0000000e+00 
6.8600000e+00 6.0100000e+00 0.0000000e+00 
6.8600000e+00 6.0300000e+00 0.0000000e+00 
6.8866667e+00 5.9700000e+00 0.0000000e+00 
6.8866667e+00 5.9900000e+00 0.0000000e+00 
6.8866667e+00 6.0100000e+00 0.0000000e+00 
6.8866667e+00 6.0300000e+00 0.0000000e+00 
6.9133333e+00 5.9700000e+00 0.0000000e+00 
6.9133333e+00 5.9900000e+00 0.0000000e+00 
6.9133333e+00 6.0100000e+00 0.0000000e+00 
6.9133333e+00 6.0300000e+00 0.0000000e+00 
6.9400000e+00 5.9700000e+00 0.0000000e+00 
6.9400000e+00 5.9900000e+00 0.0000000e+00 
6.9400000e+00 6.0100000e+00 0.0000000e+00 
6.9400000e+00 6.0300000e+00 0.0000000e+00 
6.9666667e+00 5.9700000e+00 0.0000000e+00 
6.9666667e+00 5.9900000e+00 0.0000000e+00 
6.9666667e+00 6.0100000e+00 0.0000000e+00 
6.9666667e+00 6.0300000e+00 0.0000000e+00 
6.9933333e+00 5.9700000e+00 0.0000000e+00 
6.9933333e+00 5.9900000e+00 0.0000000e+00 
6.9933333e+00 6.0100000e+00 0.0000000e+00 
6.9933333e+00 6.0300000e+00 0.0000000e+00 
7.0200000e+00 5.9700000e+00 0.0000000e+00 
7.0200000e+00 5.9900000e+00 0.0000000e+00 
[...]
POINT_DATA 604
FIELD FieldData 2
DISPLACEMENT 3 604  float
0.0000000e+00 0.0000000e+00 0.0000000e+00 
0.0000000e+00 0.0000000e+00 0.0000000e+00 
2.9470221e-05 1.8209951e-05 0.0000000e+00 
9.5278278e-06 1.1971767e-05 0.0000000e+00 
0.0000000e+00 0.0000000e+00 0.0000000e+00 
-8.9758886e-06 1.1942553e-05 0.0000000e+00 
5.9010460e-05 5.6837388e-05 0.0000000e+00 
1.9858117e-05 5.2278779e-05 0.0000000e+00 
0.0000000e+00 0.0000000e+00 0.0000000e+00 
-2.9140524e-05 1.7930043e-05 0.0000000e+00 
-1.9124907e-05 5.2534503e-05 0.0000000e+00 
8.7642297e-05 1.2338420e-04 0.0000000e+00 
-5.8328199e-05 5.7923011e-05 0.0000000e+00 
2.9371500e-05 1.1822098e-04 0.0000000e+00 
-2.8512351e-05 1.1817474e-04 0.0000000e+00 
-8.6801211e-05 1.2286593e-04 0.0000000e+00 
1.1533344e-04 2.1343389e-04 0.0000000e+00 
3.8605992e-05 2.0896211e-04 0.0000000e+00 
-3.7751468e-05 2.0907880e-04 0.0000000e+00 
-1.1449341e-04 2.1416695e-04 0.0000000e+00 
1.4203504e-04 3.2914089e-04 0.0000000e+00 
4.7471501e-05 3.2415256e-04 0.0000000e+00 
-4.6783221e-05 3.2393160e-04 0.0000000e+00 
-1.4144574e-04 3.2818416e-04 0.0000000e+00 
1.6778831e-04 4.6689930e-04 0.0000000e+00 
5.5960984e-05 4.6251570e-04 0.0000000e+00 
-5.5635340e-05 4.6256969e-04 0.0000000e+00 
-1.6773397e-04 4.6716324e-04 0.0000000e+00 
1.9268018e-04 6.2812841e-04 0.0000000e+00 
6.3823736e-05 6.2379093e-04 0.0000000e+00 
-6.4578071e-05 6.2374390e-04 0.0000000e+00 
-1.9322710e-04 6.2810257e-04 0.0000000e+00 
2.1649461e-04 8.1211590e-04 0.0000000e+00 
7.1498476e-05 8.0725056e-04 0.0000000e+00 
-7.3173715e-05 8.0673673e-04 0.0000000e+00 
-2.1817739e-04 8.1026968e-04 0.0000000e+00 
2.3948273e-04 1.0159897e-03 0.0000000e+00 
7.8727195e-05 1.0117413e-03 0.0000000e+00 
-8.1695416e-05 1.0113766e-03 0.0000000e+00 
-2.4249023e-04 1.0152840e-03 0.0000000e+00 
2.6147627e-04 1.2419712e-03 0.0000000e+00 
8.5524885e-05 1.2371186e-03 0.0000000e+00 
-9.0149382e-05 1.2363995e-03 0.0000000e+00 
-2.6617142e-04 1.2394108e-03 0.0000000e+00 
2.8261894e-04 1.4864811e-03 0.0000000e+00 
9.1875569e-05 1.4822494e-03 0.0000000e+00 
-9.8537764e-05 1.4816321e-03 0.0000000e+00 
-2.8931248e-04 1.4850291e-03 0.0000000e+00 
3.0273337e-04 1.7517852e-03 0.0000000e+00 
9.7798910e-05 1.7469182e-03 0.0000000e+00 
-1.0687335e-04 1.7459300e-03 0.0000000e+00 
-3.1188148e-04 1.7484098e-03 0.0000000e+00 
3.2201961e-04 2.0342717e-03 0.0000000e+00 
1.0326430e-04 2.0300219e-03 0.0000000e+00 
-1.1516683e-04 2.0291281e-03 0.0000000e+00 
-3.3395336e-04 2.0319949e-03 0.0000000e+00 
3.4027116e-04 2.3362800e-03 0.0000000e+00 
1.0829651e-04 2.3313731e-03 0.0000000e+00 
-1.2342958e-04 2.3300969e-03 0.0000000e+00 
-3.5548150e-04 2.3320346e-03 0.0000000e+00 
3.5771580e-04 2.6541684e-03 0.0000000e+00 
1.1286419e-04 2.6498788e-03 0.0000000e+00 
-1.3166752e-04 2.6486935e-03 0.0000000e+00 
-3.7654969e-04 2.6510213e-03 0.0000000e+00 
3.7412196e-04 2.9903415e-03 0.0000000e+00 
1.1699704e-04 2.9853768e-03 0.0000000e+00 
-1.3989015e-04 2.9838008e-03 0.0000000e+00 
-3.9709410e-04 2.9851910e-03 0.0000000e+00 
3.8974199e-04 3.3411240e-03 0.0000000e+00 
1.2066272e-04 3.3367802e-03 0.0000000e+00 
-1.4809899e-04 3.3352951e-03 0.0000000e+00 
-4.1720742e-04 3.3370803e-03 0.0000000e+00 
4.0432267e-04 3.7089809e-03 0.0000000e+00 
1.2389431e-04 3.7039492e-03 0.0000000e+00 
-1.5630268e-04 3.7020679e-03 0.0000000e+00 
-4.3680707e-04 3.7029110e-03 0.0000000e+00 
4.1813896e-04 4.0902107e-03 0.0000000e+00 
1.2665986e-04 4.0857997e-03 0.0000000e+00 
-1.6449709e-04 4.0840098e-03 0.0000000e+00 
-4.5599366e-04 4.0852472e-03 0.0000000e+00 
4.3089011e-04 4.4873198e-03 0.0000000e+00 
1.2901003e-04 4.4822285e-03 0.0000000e+00 
-1.7267461e-04 4.4799999e-03 0.0000000e+00 
-4.7469411e-04 4.4803091e-03 0.0000000e+00 
4.4284253e-04 4.8965495e-03 0.0000000e+00 
1.3092508e-04 4.8920324e-03 0.0000000e+00 
-1.8082868e-04 4.8900528e-03 0.0000000e+00 
-4.9303962e-04 4.8907087e-03 0.0000000e+00 
4.5395299e-04 5.3197107e-03 0.0000000e+00 
1.3215191e-04 5.3151715e-03 0.0000000e+00 
-1.8922179e-04 5.3130373e-03 0.0000000e+00 
-5.1079210e-04 5.3134309e-03 0.0000000e+00 
4.6398849e-04 5.7562016e-03 0.0000000e+00 
1.3318938e-04 5.7510129e-03 0.0000000e+00 
-1.9735634e-04 5.7483433e-03 0.0000000e+00 
-5.2817135e-04 5.7478536e-03 0.0000000e+00 
4.7333857e-04 6.2029898e-03 0.0000000e+00 
1.3375793e-04 6.1984473e-03 0.0000000e+00 
-2.0549774e-04 6.1959260e-03 0.0000000e+00 
-5.4510528e-04 6.1958403e-03 0.0000000e+00 
4.8166278e-04 6.6627252e-03 0.0000000e+00 
1.3389952e-04 6.6574826e-03 0.0000000e+00 
-2.1363632e-04 6.6545725e-03 0.0000000e+00 
-5.6146988e-04 6.6535529e-03 0.0000000e+00 
4.8926482e-04 7.1315518e-03 0.0000000e+00 
1.3359233e-04 7.1269878e-03 0.0000000e+00 
-2.2173916e-04 7.1241974e-03 0.0000000e+00 
-5.7742324e-04 7.1236050e-03 0.0000000e+00 
4.9580865e-04 7.6121233e-03 0.0000000e+00 
1.3288113e-04 7.6068593e-03 0.0000000e+00 
-2.2980914e-04 7.6036876e-03 0.0000000e+00 
-5.9279814e-04 7.6021616e-03 0.0000000e+00 
5.0163680e-04 8.1005293e-03 0.0000000e+00 
1.3172946e-04 8.0959647e-03 0.0000000e+00 
-2.3782246e-04 8.0929246e-03 0.0000000e+00 
-6.0773411e-04 8.0918347e-03 0.0000000e+00 
5.0639676e-04 8.5994429e-03 0.0000000e+00 
1.3018296e-04 8.5941895e-03 0.0000000e+00 
-2.4578178e-04 8.5907800e-03 0.0000000e+00 
-6.2204981e-04 8.5887655e-03 0.0000000e+00 
5.1044188e-04 9.1049093e-03 0.0000000e+00 
1.2820532e-04 9.1003777e-03 0.0000000e+00 
-2.5365865e-04 9.0971142e-03 0.0000000e+00 
-6.3589137e-04 9.0955444e-03 0.0000000e+00 
5.1340653e-04 9.6196023e-03 0.0000000e+00 
1.2584391e-04 9.6143977e-03 0.0000000e+00 
-2.6145453e-04 9.6107790e-03 0.0000000e+00 
-6.4906289e-04 9.6082960e-03 0.0000000e+00 
5.1565406e-04 1.0139523e-02 0.0000000e+00 
1.2306228e-04 1.0135065e-02 0.0000000e+00 
-2.6913704e-04 1.0131609e-02 0.0000000e+00 
-6.6171578e-04 1.0129580e-02 0.0000000e+00 
5.1680846e-04 1.0667335e-02 0.0000000e+00 
1.1990875e-04 1.0662225e-02 0.0000000e+00 
-2.7670710e-04 1.0658431e-02 0.0000000e+00 
-6.7363974e-04 1.0655503e-02 0.0000000e+00 
5.1724288e-04 1.1199006e-02 0.0000000e+00 
1.1634791e-04 1.1194662e-02 0.0000000e+00 
-2.8412737e-04 1.1191047e-02 0.0000000e+00 
-6.8498940e-04 1.1188577e-02 0.0000000e+00 
5.1654392e-04 1.1737169e-02 0.0000000e+00 
1.1244421e-04 1.1732213e-02 0.0000000e+00 
-2.9138175e-04 1.1728238e-02 0.0000000e+00 
-6.9557055e-04 1.1724900e-02 0.0000000e+00 
5.1506091e-04 1.2277723e-02 0.0000000e+00 
1.0818021e-04 1.2273504e-02 0.0000000e+00 
-2.9843562e-04 1.2269885e-02 0.0000000e+00 
-7.0556337e-04 1.2266965e-02 0.0000000e+00 
5.1268309e-04 1.2822516e-02 0.0000000e+00 
1.0329323e-04 1.2818410e-02 0.0000000e+00 
-3.0553240e-04 1.2814741e-02 0.0000000e+00 
-7.1462969e-04 1.2811623e-02 0.0000000e+00 
5.0914773e-04 1.3370738e-02 0.0000000e+00 
9.8306813e-05 1.3366110e-02 0.0000000e+00 
-3.1215042e-04 1.3362012e-02 0.0000000e+00 
-7.2293862e-04 1.3358094e-02 0.0000000e+00 
5.0487646e-04 1.3919041e-02 0.0000000e+00 
9.2931537e-05 1.3915251e-02 0.0000000e+00 
-3.1852711e-04 1.3911428e-02 0.0000000e+00 
-7.3043292e-04 1.3907978e-02 0.0000000e+00 
4.9945793e-04 1.4469976e-02 0.0000000e+00 
8.7215921e-05 1.4465646e-02 0.0000000e+00 
-3.2464504e-04 1.4461565e-02 0.0000000e+00 
-7.3688204e-04 1.4457283e-02 0.0000000e+00 
4.9324338e-04 1.5019335e-02 0.0000000e+00 
8.1141038e-05 1.5015891e-02 0.0000000e+00 
-3.3044075e-04 1.5012070e-02 0.0000000e+00 
-7.4248289e-04 1.5008285e-02 0.0000000e+00 
4.8584124e-04 1.5569591e-02 0.0000000e+00 
7.4759049e-05 1.5565641e-02 0.0000000e+00 
-3.3591042e-04 1.5561589e-02 0.0000000e+00 
-7.4697030e-04 1.5556987e-02 0.0000000e+00 
4.7762855e-04 1.6116496e-02 0.0000000e+00 
6.8037942e-05 1.6113465e-02 0.0000000e+00 
-3.4100217e-04 1.6109699e-02 0.0000000e+00 
-7.5052021e-04 1.6105608e-02 0.0000000e+00 
4.6821505e-04 1.6662464e-02 0.0000000e+00 
6.1029176e-05 1.6658968e-02 0.0000000e+00 
-3.4571358e-04 1.6655001e-02 0.0000000e+00 
-7.5286227e-04 1.6650117e-02 0.0000000e+00 
4.5797511e-04 1.7203223e-02 0.0000000e+00 
5.3702376e-05 1.7200677e-02 0.0000000e+00 
-3.4999060e-04 1.7197021e-02 0.0000000e+00 
-7.5417851e-04 1.7192662e-02 0.0000000e+00 
4.4652313e-04 1.7741110e-02 0.0000000e+00 
4.6109140e-05 1.7738144e-02 0.0000000e+00 
-3.5383190e-04 1.7734318e-02 0.0000000e+00 
-7.5419373e-04 1.7729191e-02 0.0000000e+00 
4.3423021e-04 1.8271843e-02 0.0000000e+00 
3.8220023e-05 1.8269856e-02 0.0000000e+00 
-3.5718256e-04 1.8266367e-02 0.0000000e+00 
-7.5309596e-04 1.8261779e-02 0.0000000e+00 
4.2071798e-04 1.8797676e-02 0.0000000e+00 
3.0085914e-05 1.8795314e-02 0.0000000e+00 
-3.6004368e-04 1.8791685e-02 0.0000000e+00 
-7.5060618e-04 1.8786354e-02 0.0000000e+00 
4.0635453e-04 1.9314331e-02 0.0000000e+00 
2.1678641e-05 1.9312969e-02 0.0000000e+00 
-3.6235919e-04 1.9309701e-02 0.0000000e+00 
-7.4691785e-04 1.9304916e-02 0.0000000e+00 
3.9074219e-04 1.9823970e-02 0.0000000e+00 
1.3062708e-05 1.9822291e-02 0.0000000e+00 
-3.6411793e-04 1.9818874e-02 0.0000000e+00 
-7.4177720e-04 1.9813386e-02 0.0000000e+00 
3.7421439e-04 2.0322292e-02 0.0000000e+00 
4.2263763e-06 2.0321586e-02 0.0000000e+00 
-3.6527127e-04 2.0318698e-02 0.0000000e+00 
-7.3540441e-04 2.0313723e-02 0.0000000e+00 
3.5667284e-04 2.0810682e-02 0.0000000e+00 
-5.0736047e-06 2.0810347e-02 0.0000000e+00 
-3.6605163e-04 2.0807610e-02 0.0000000e+00 
-7.2743711e-04 2.0802566e-02 0.0000000e+00 
3.3788280e-04 2.1287952e-02 0.0000000e+00 
-1.4343269e-05 2.1287405e-02 0.0000000e+00 
-3.6596630e-04 2.1284457e-02 0.0000000e+00 
-7.1803636e-04 2.1278782e-02 0.0000000e+00 
3.1822124e-04 2.1750603e-02 0.0000000e+00 
-2.3850409e-05 2.1751100e-02 0.0000000e+00 
-3.6523465e-04 2.1748602e-02 0.0000000e+00 
-7.0719085e-04 2.1743485e-02 0.0000000e+00 
2.9733822e-04 2.2200587e-02 0.0000000e+00 
-3.3554076e-05 2.2200860e-02 0.0000000e+00 
-3.6385664e-04 2.2198314e-02 0.0000000e+00 
-6.9464335e-04 2.2192536e-02 0.0000000e+00 
2.7553475e-04 2.2633666e-02 0.0000000e+00 
-4.3468816e-05 2.2635005e-02 0.0000000e+00 
-3.6176990e-04 2.2632887e-02 0.0000000e+00 
-6.8064660e-04 2.2627690e-02 0.0000000e+00 
2.5249336e-04 2.3051685e-02 0.0000000e+00 
-5.3551288e-05 2.3052826e-02 0.0000000e+00 
-3.5899372e-04 2.3050675e-02 0.0000000e+00 
-6.6492386e-04 2.3044825e-02 0.0000000e+00 
2.2852797e-04 2.3450445e-02 0.0000000e+00 
-6.3831128e-05 2.3452653e-02 0.0000000e+00 
-3.5548361e-04 2.3450937e-02 0.0000000e+00 
-6.4771637e-04 2.3445674e-02 0.0000000e+00 
2.0333561e-04 2.3831720e-02 0.0000000e+00 
-7.4269001e-05 2.3833751e-02 0.0000000e+00 
-3.5126755e-04 2.3832015e-02 0.0000000e+00 
-6.2875514e-04 2.3826108e-02 0.0000000e+00 
1.7721637e-04 2.4191371e-02 0.0000000e+00 
-8.4896335e-05 2.4194459e-02 0.0000000e+00 
-3.4630583e-04 2.4193157e-02 0.0000000e+00 
-6.0829708e-04 2.4187838e-02 0.0000000e+00 
1.4988283e-04 2.4531101e-02 0.0000000e+00 
-9.5677362e-05 2.4534027e-02 0.0000000e+00 
-3.4063544e-04 2.4532707e-02 0.0000000e+00 
-5.8608037e-04 2.4526748e-02 0.0000000e+00 
1.2162123e-04 2.4846847e-02 0.0000000e+00 
-1.0664660e-04 2.4850808e-02 0.0000000e+00 
-3.3422259e-04 2.4849915e-02 0.0000000e+00 
-5.6237859e-04 2.4844538e-02 0.0000000e+00 
9.2159995e-05 2.5140249e-02 0.0000000e+00 
-1.1777294e-04 2.5144051e-02 0.0000000e+00 
-3.2711500e-04 2.5143133e-02 0.0000000e+00 
-5.3693688e-04 2.5137114e-02 0.0000000e+00 
6.1772392e-05 2.5407341e-02 0.0000000e+00 
-1.2909421e-04 2.5412139e-02 0.0000000e+00 
-3.1928422e-04 2.5411629e-02 0.0000000e+00 
-5.1004577e-04 2.5406172e-02 0.0000000e+00 
3.0177442e-05 2.5649703e-02 0.0000000e+00 
-1.4057121e-04 2.5654343e-02 0.0000000e+00 
-3.1077688e-04 2.5653759e-02 0.0000000e+00 
-4.8148105e-04 2.5647663e-02 0.0000000e+00 
-2.3910970e-06 2.5863441e-02 0.0000000e+00 
-1.5223597e-04 2.5868992e-02 0.0000000e+00 
-3.0157288e-04 2.5868913e-02 0.0000000e+00 
-4.5156942e-04 2.5863313e-02 0.0000000e+00 
-3.5964470e-05 2.6049507e-02 0.0000000e+00 
-1.6430811e-04 2.6055416e-02 0.0000000e+00 
-2.9195527e-04 2.6055485e-02 0.0000000e+00 
-4.2001486e-04 2.6049808e-02 0.0000000e+00 
-7.0707393e-05 2.6206716e-02 0.0000000e+00 
-1.7638458e-04 2.6212459e-02 0.0000000e+00 
-2.8152127e-04 2.6212314e-02 0.0000000e+00 
-3.8707718e-04 2.6206013e-02 0.0000000e+00 
-1.0633253e-04 2.6332065e-02 0.0000000e+00 
-1.8871443e-04 2.6338646e-02 0.0000000e+00 
-2.7052562e-04 2.6338850e-02 0.0000000e+00 
-3.5288498e-04 2.6333030e-02 0.0000000e+00 
-1.4307032e-04 2.6427082e-02 0.0000000e+00 
-2.0129209e-04 2.6433416e-02 0.0000000e+00 
-2.5904508e-04 2.6433494e-02 0.0000000e+00 
-3.1722822e-04 2.6426969e-02 0.0000000e+00 
-1.8073252e-04 2.6488245e-02 0.0000000e+00 
-2.1415995e-04 2.6495350e-02 0.0000000e+00 
-2.4706250e-04 2.6495685e-02 0.0000000e+00 
-2.8049559e-04 2.6489608e-02 0.0000000e+00 
-2.1952221e-04 2.6517039e-02 0.0000000e+00 
-2.2731092e-04 2.6523835e-02 0.0000000e+00 
-2.3468071e-04 2.6523988e-02 0.0000000e+00 
-2.4246112e-04 2.6517161e-02 0.0000000e+00 
-2.5924311e-04 2.6510080e-02 0.0000000e+00 
-2.4080552e-04 2.6517552e-02 0.0000000e+00 
-2.2190094e-04 2.6517893e-02 0.0000000e+00 
-2.0351063e-04 2.6511458e-02 0.0000000e+00 
-3.0008673e-04 2.6468850e-02 0.0000000e+00 
-2.5464295e-04 2.6475946e-02 0.0000000e+00 
-2.0883978e-04 2.6476041e-02 0.0000000e+00 
-1.6342644e-04 2.6468808e-02 0.0000000e+00 
-3.4187219e-04 2.6390129e-02 0.0000000e+00 
-2.6888871e-04 2.6397792e-02 0.0000000e+00 
-1.9550365e-04 2.6397995e-02 0.0000000e+00 
-1.2261451e-04 2.6391088e-02 0.0000000e+00 
-3.8477974e-04 2.6275394e-02 0.0000000e+00 
-2.8354680e-04 2.6282601e-02 0.0000000e+00 
-1.8202146e-04 2.6282482e-02 0.0000000e+00 
-8.0863024e-05 2.6274723e-02 0.0000000e+00 
-4.2864213e-04 2.6121598e-02 0.0000000e+00 
-2.9868800e-04 2.6129251e-02 0.0000000e+00 
-1.6840436e-04 2.6129151e-02 0.0000000e+00 
-3.8596372e-05 2.6121642e-02 0.0000000e+00 
-4.7362884e-04 2.5930226e-02 0.0000000e+00 
-3.1432093e-04 2.5937333e-02 0.0000000e+00 
-1.5479325e-04 2.5936826e-02 0.0000000e+00 
4.3934773e-06 2.5928403e-02 0.0000000e+00 
-5.1958366e-04 2.5698416e-02 0.0000000e+00 
-3.3052054e-04 2.5705834e-02 0.0000000e+00 
-1.4120205e-04 2.5705247e-02 0.0000000e+00 
4.7665766e-05 2.5696985e-02 0.0000000e+00 
-5.6668563e-04 2.5427662e-02 0.0000000e+00 
-3.4728835e-04 2.5434443e-02 0.0000000e+00 
-1.2777318e-04 2.5433331e-02 0.0000000e+00 
9.1407670e-05 2.5424101e-02 0.0000000e+00 
-6.1480952e-04 2.5115270e-02 0.0000000e+00 
-3.6469800e-04 2.5122192e-02 0.0000000e+00 
-1.1452038e-04 2.5120991e-02 0.0000000e+00 
1.3514935e-04 2.5111794e-02 0.0000000e+00 
-6.6395011e-04 2.4762291e-02 0.0000000e+00 
-3.8294710e-04 2.4768878e-02 0.0000000e+00 
-1.0178427e-04 2.4767265e-02 0.0000000e+00 
1.7911897e-04 2.4757539e-02 0.0000000e+00 
-7.1421651e-04 2.4368187e-02 0.0000000e+00 
-4.0175449e-04 2.4373990e-02 0.0000000e+00 
-8.9283451e-05 2.4371621e-02 0.0000000e+00 
2.2296555e-04 2.4360880e-02 0.0000000e+00 
-7.6540072e-04 2.3931174e-02 0.0000000e+00 
-4.2134734e-04 2.3936904e-02 0.0000000e+00 
-7.7285414e-05 2.3934208e-02 0.0000000e+00 
2.6641035e-04 2.3923390e-02 0.0000000e+00 
-8.1765513e-04 2.3452863e-02 0.0000000e+00 
-4.4174843e-04 2.3457670e-02 0.0000000e+00 
-6.5946619e-05 2.3454230e-02 0.0000000e+00 
3.0964065e-04 2.3442276e-02 0.0000000e+00 
-8.7086788e-04 2.2931162e-02 0.0000000e+00 
-4.6303147e-04 2.2935760e-02 0.0000000e+00 
-5.5272478e-05 2.2931852e-02 0.0000000e+00 
3.5215160e-04 2.2919736e-02 0.0000000e+00 
-9.2517449e-04 2.2367697e-02 0.0000000e+00 
-4.8520847e-04 2.2371252e-02 0.0000000e+00 
-4.5436151e-05 2.2366496e-02 0.0000000e+00 
3.9415534e-04 2.2353170e-02 0.0000000e+00 
-9.8044518e-04 2.1760567e-02 0.0000000e+00 
-5.0836393e-04 2.1763766e-02 0.0000000e+00 
-3.6450165e-05 2.1758429e-02 0.0000000e+00 
4.3515905e-04 2.1744845e-02 0.0000000e+00 
-1.0368091e-03 2.1111446e-02 0.0000000e+00 
-5.3250779e-04 2.1113488e-02 0.0000000e+00 
-2.8491059e-05 2.1107205e-02 0.0000000e+00 
4.7537967e-04 2.1092342e-02 0.0000000e+00 
-1.0941366e-03 2.0418635e-02 0.0000000e+00 
-5.5772267e-04 2.0420178e-02 0.0000000e+00 
-2.1566122e-05 2.0413204e-02 0.0000000e+00 
5.1431835e-04 2.0397991e-02 0.0000000e+00 
-1.1525502e-03 1.9683857e-02 0.0000000e+00 
-5.8401386e-04 1.9684133e-02 0.0000000e+00 
-1.5852274e-05 1.9676118e-02 0.0000000e+00 
5.5220041e-04 1.9659563e-02 0.0000000e+00 
-1.2119179e-03 1.8905612e-02 0.0000000e+00 
-6.1146121e-04 1.8905250e-02 0.0000000e+00 
-1.1350107e-05 1.8896442e-02 0.0000000e+00 
5.8852361e-04 1.8879451e-02 0.0000000e+00 
-1.2723554e-03 1.8085676e-02 0.0000000e+00 
-6.4006420e-04 1.8083943e-02 0.0000000e+00 
-8.2354105e-06 1.8074006e-02 0.0000000e+00 
6.2352489e-04 1.8055619e-02 0.0000000e+00 
-1.3337248e-03 1.7222750e-02 0.0000000e+00 
-6.6989808e-04 1.7220248e-02 0.0000000e+00 
-6.4994441e-06 1.7209421e-02 0.0000000e+00 
6.5670127e-04 1.7190513e-02 0.0000000e+00 
-1.3961496e-03 1.6318662e-02 0.0000000e+00 
-7.0094729e-04 1.6314701e-02 0.0000000e+00 
-6.3086618e-06 1.6302647e-02 0.0000000e+00 
6.8828972e-04 1.6282310e-02 0.0000000e+00 
-1.4595022e-03 1.5372292e-02 0.0000000e+00 
-7.3327769e-04 1.5367422e-02 0.0000000e+00 
-7.6420670e-06 1.5354464e-02 0.0000000e+00 
7.1778201e-04 1.5333506e-02 0.0000000e+00 
-1.5237694e-03 1.4385192e-02 0.0000000e+00 
-7.6701038e-04 1.4379076e-02 0.0000000e+00 
-1.0790608e-05 1.4364985e-02 0.0000000e+00 
7.4543012e-04 1.4342953e-02 0.0000000e+00 
-1.5889932e-03 1.3357803e-02 0.0000000e+00 
-8.0192941e-04 1.3350118e-02 0.0000000e+00 
-1.5537957e-05 1.3334641e-02 0.0000000e+00 
7.7093620e-04 1.3311198e-02 0.0000000e+00 
-1.6549569e-03 1.2289748e-02 0.0000000e+00 
-8.3818326e-04 1.2281006e-02 0.0000000e+00 
-2.2057410e-05 1.2264475e-02 0.0000000e+00 
7.9400137e-04 1.2240352e-02 0.0000000e+00 
-1.7217711e-03 1.1183045e-02 0.0000000e+00 
-8.7574843e-04 1.1172662e-02 0.0000000e+00 
-3.0484920e-05 1.1154793e-02 0.0000000e+00 
8.1488611e-04 1.1129209e-02 0.0000000e+00 
-1.7892781e-03 1.0037127e-02 0.0000000e+00 
-9.1466817e-04 1.0025625e-02 0.0000000e+00 
-4.0764669e-05 1.0006636e-02 0.0000000e+00 
8.3311681e-04 9.9803431e-03 0.0000000e+00 
-1.8575807e-03 8.8540425e-03 0.0000000e+00 
-9.5489770e-04 8.8408548e-03 0.0000000e+00 
-5.3032062e-05 8.8205008e-03 0.0000000e+00 
8.4898673e-04 8.7927509e-03 0.0000000e+00 
-1.9264936e-03 7.6333753e-03 0.0000000e+00 
-9.9648008e-04 7.6190143e-03 0.0000000e+00 
-6.7226010e-05 7.5975110e-03 0.0000000e+00 
8.6205090e-04 7.5690322e-03 0.0000000e+00 
-1.9961169e-03 6.3772266e-03 0.0000000e+00 
-1.0393596e-03 6.3611580e-03 0.0000000e+00 
-8.3470712e-05 6.3382819e-03 0.0000000e+00 
8.7261714e-04 6.3083694e-03 0.0000000e+00 
-2.0662529e-03 5.0853301e-03 0.0000000e+00 
-1.0835703e-03 5.0680543e-03 0.0000000e+00 
-1.0169141e-04 5.0440180e-03 0.0000000e+00 
8.8025645e-04 5.0133712e-03 0.0000000e+00 
-2.1370002e-03 3.7598327e-03 0.0000000e+00 
-1.1290445e-03 3.7408456e-03 0.0000000e+00 
-1.2199898e-04 3.7154460e-03 0.0000000e+00 
8.8529188e-04 3.6834060e-03 0.0000000e+00 
-2.2081481e-03 2.4006046e-03 0.0000000e+00 
-1.1758073e-03 2.3803967e-03 0.0000000e+00 
-1.4430513e-04 2.3538444e-03 0.0000000e+00 
8.8731294e-04 2.3210800e-03 0.0000000e+00 
-2.2797941e-03 1.0098345e-03 0.0000000e+00 
-1.2237798e-03 9.8793098e-04 0.0000000e+00 
-1.6870710e-04 9.6004258e-04 0.0000000e+00 
8.8665813e-04 9.2594320e-04 0.0000000e+00 
-2.3517148e-03 -4.1248123e-04 0.0000000e+00 
-1.2729782e-03 -4.3560027e-04 0.0000000e+00 
-1.9510250e-04 -4.6461754e-04 0.0000000e+00 
8.8293806e-04 -4.9942039e-04 0.0000000e+00 
-2.4240178e-03 -1.8641198e-03 0.0000000e+00 
-1.3233078e-03 -1.8888963e-03 0.0000000e+00 
-2.2357000e-04 -1.9192164e-03 0.0000000e+00 
8.7649534e-04 -1.9552720e-03 0.0000000e+00 
-2.4964825e-03 -3.3449864e-03 0.0000000e+00 
-1.3747713e-03 -3.3709697e-03 0.0000000e+00 
-2.5399782e-04 -3.4023306e-03 0.0000000e+00 
8.6696500e-04 -3.4390673e-03 0.0000000e+00 
-2.5691135e-03 -4.8530610e-03 0.0000000e+00 
-1.4273802e-03 -4.8804227e-03 0.0000000e+00 
-2.8650854e-04 -4.9129228e-03 0.0000000e+00 
8.5468192e-04 -4.9506008e-03 0.0000000e+00 
-2.6419166e-03 -6.3871786e-03 0.0000000e+00 
-1.4809245e-03 -6.4161006e-03 0.0000000e+00 
-3.2089266e-04 -6.4498488e-03 0.0000000e+00 
8.3955044e-04 -6.4885990e-03 0.0000000e+00 