# vtk DataFile Version 4.0
vtk output
ASCII
DATASET UNSTRUCTURED_GRID
POINTS 604 float
5.5000000e+00 5.9700000e+00 0.0000000e+00 
5.5000000e+00 5.9900000e+00 0.0000000e+00 
5.5266667e+00 5.9700000e+00 0.0000000e+00 
5.5266667e+00 5.9900000e+00 0.0000000e+00 
5.5000000e+00 6.0100000e+00 0.0000000e+00 
5.5266667e+00 6.0100000e+00 0.0000000e+00 
5.5533333e+00 5.9700000e+00 0.0000000e+00 
5.5533333e+00 5.9900000e+00 0.0000000e+00 
5.5000000e+00 6.0300000e+00 0.0000000e+00 
5.5266667e+00 6.0300000e+00 0.0000000e+00 
5.5533333e+00 6.0100000e+00 0.0000000e+00 
5.5800000e+00 5.9700000e+00 0.0000000e+00 
5.5533333e+00 6.0300000e+00 0.0000000e+00 
5.5800000e+00 5.9900000e+00 0.0000000e+00 
5.5800000e+00 6.0100000e+00 0.0000000e+00 
5.5800000e+00 6.0300000e+00 0.0000000e+00 
5.6066667e+00 5.9700000e+00 0.0000000e+00 
5.6066667e+00 5.9900000e+00 0.0000000e+00 
5.6066667e+00 6.0100000e+00 0.0000000e+00 
5.6066667e+00 6.0300000e+00 0.0000000e+00 
5.6333333e+00 5.9700000e+00 0.0000000e+00 
5.6333333e+00 5.9900000e+00 0.0000000e+00 
5.6333333e+00 6.0100000e+00 0.0000000e+00 
5.6333333e+00 6.0300000e+00 0.0000000e+00 
5.6600000e+00 5.9700000e+00 0.0000000e+00 
5.6600000e+00 5.9900000e+00 0.0000000e+00 
5.6600000e+00 6.0100000e+00 0.0000000e+00 
5.6600000e+00 6.0300000e+00 0.0000000e+00 
5.6866667e+00 5.9700000e+00 0.0000000e+00 
5.6866667e+00 5.9900000e+00 0.0000000e+00 
5.6866667e+00 6.0100000e+00 0.0000000e+00 
5.6866667e+00 6.0300000e+00 0.0000000e+00 
5.7133333e+00 5.9700000e+00 0.0000000e+00 
5.7133333e+00 5.9900000e+00 0.0000000e+00 
5.7133333e+00 6.0100000e+00 0.0000000e+00 
5.7133333e+00 6.0300000e+00 0.0000000e+00 
5.7400000e+00 5.9700000e+00 0.0000000e+00 
5.7400000e+00 5.9900000e+00 0.0000000e+00 
5.7400000e+00 6.0100000e+00 0.0000000e+00 
5.7400000e+00 6.0300000e+00 0.0000000e+00 
5.7666667e+00 5.9700000e+00 0.0000000e+00 
5.7666667e+00 5.9900000e+00 0.0000000e+00 
5.7666667e+00 6.0100000e+00 0.0000000e+00 
5.7666667e+00 6.0300000e+00 0.0000000e+00 
5.7933333e+00 5.9700000e+00 0.0000000e+00 
5.7933333e+00 5.9900000e+00 0.0000000e+00 
5.7933333e+00 6.0100000e+00 0.0000000e+00 
5.7933333e+00 6.0300000e+00 0.0000000e+00 
5.8200000e+00 5.9700000e+00 0.0000000e+00 
5.8200000e+00 5.9900000e+00 0.0000000e+00 
5.8200000e+00 6.0100000e+00 0.0000000e+00 
5.8200000e+00 6.0300000e+00 0.0000000e+00 
5.8466667e+00 5.9700000e+00 0.0000000e+00 
5.8466667e+00 5.9900000e+00 0.0000000e+00 
5.8466667e+00 6.0100000e+00 0.0000000e+00 
5.8466667e+00 6.0300000e+00 0.0000000e+00 
5.8733333e+00 5.9700000e+00 0.0000000e+00 
5.8733333e+00 5.9900000e+00 0.0000000e+00 
5.8733333e+00 6.0100000e+00 0.0000000e+00 
5.8733333e+00 6.0300000e+00 0.0000000e+00 
5.9000000e+00 5.9700000e+00 0.0000000e+00 
5.9000000e+00 5.9900000e+00 0.0000000e+00 
5.9000000e+00 6.0100000e+00 0.0000000e+00 
5.9000000e+00 6.0300000e+00 0.0000000e+00 
5.9266667e+00 5.9700000e+00 0.0000000e+00 
5.9266667e+00 5.9900000e+00 0.0000000e+00 
5.9266667e+00 6.0100000e+00 0.0000000e+00 
5.9266667e+00 6.0300000e+00 0.0000000e+00 
5.9533333e+00 5.9700000e+00 0.0000000e+00 
5.9533333e+00 5.9900000e+00 0.0000000e+00 
5.9533333e+00 6.0100000e+00 0.0000000e+00 
5.9533333e+00 6.0300000e+00 0.0000000e+00 
5.9800000e+00 5.9700000e+00 0.0000000e+00 
5.9800000e+00 5.9900000e+00 0.0000000e+00 
5.9800000e+00 6.0100000e+00 0.0000000e+00 
5.9800000e+00 6.0300000e+00 0.0000000e+00 
6.0066667e+00 5.9700000e+00 0.0000000e+00 
6.0066667e+00 5.9900000e+00 0.0000000e+00 
6.0066667e+00 6.0100000e+00 0.0000000e+00 
6.0066667e+00 6.0300000e+00 0.0000000e+00 
6.0333333e+00 5.9700000e+00 0.0000000e+00 
6.0333333e+00 5.9900000e+00 0.0000000e+00 
6.0333333e+00 6.0100000e+00 0.0000000e+00 
6.0333333e+00 6.0300000e+00 0.0000000e+00 
6.0600000e+00 5.9700000e+00 0.0000000e+00 
6.0600000e+00 5.9900000e+00 0.0000000e+00 
6.0600000e+00 6.0100000e+00 0.0000000e+00 
6.0600000e+00 6.0300000e+00 0.0000000e+00 
6.0866667e+00 5.9700000e+00 0.0000000e+00 
6.0866667e+00 5.9900000e+00 0.0000000e+00 
6.0866667e+00 6.0100000e+00 0.0000000e+00 
6.0866667e+00 6.0300000e+00 0.0000000e+00 
6.1133333e+00 5.9700000e+00 0.0000000e+00 
6.1133333e+00 5.9900000e+00 0.0000000e+00 
6.1133333e+00 6.0100000e+00 0.0000000e+00 
6.1133333e+00 6.0300000e+00 0.0000000e+00 
6.1400000e+00 5.9700000e+00 0.0000000e+00 
6.1400000e+00 5.9900000e+00 0.0000000e+00 
6.1400000e+00 6.0100000e+00 0.0000000e+00 
6.1400000e+00 6.0300000e+00 0.0000000e+00 
6.1666667e+00 5.9700000e+00 0.0000000e+00 
6.1666667e+00 5.9900000e+00 0.0000000e+00 
6.1666667e+00 6.0100000e+00 0.0000000e+00 
6.1666667e+00 6.0300000e+00 0.0000000e+00 
6.1933333e+00 5.9700000e+00 0.0000000e+00 
6.1933333e+00 5.9900000e+00 0.0000000e+00 
6.1933333e+00 6.0100000e+00 0.0000000e+00 
6.1933333e+00 6.0300000e+00 0.0000000e+00 
6.2200000e+00 5.9700000e+00 0.0000000e+00 
6.2200000e+00 5.9900000e+00 0.0000000e+00 
6.2200000e+00 6.0100000e+00 0.0000000e+00 
6.2200000e+00 6.0300000e+00 0.0000000e+00 
6.2466667e+00 5.9700000e+00 0.0000000e+00 
6.2466667e+00 5.9900000e+00 0.0000000e+00 
6.2466667e+00 6.0100000e+00 0.0000000e+00 
6.2466667e+00 6.0300000e+00 0.0000000e+00 
6.2733333e+00 5.9700000e+00 0.0000000e+00 
6.2733333e+00 5.9900000e+00 0.0000000e+00 
6.2733333e+00 6.0100000e+00 0.0000000e+00 
6.2733333e+00 6.0300000e+00 0.0000000e+00 
6.3000000e+00 5.9700000e+00 0.0000000e+00 
6.3000000e+00 5.9900000e+00 0.0000000e+00 
6.3000000e+00 6.0100000e+00 0.0000000e+00 
6.3000000e+00 6.0300000e+00 0.0000000e+00 
6.3266667e+00 5.9700000e+00 0.0000000e+00 
6.3266667e+00 5.9900000e+00 0.0000000e+00 
6.3266667e+00 6.0100000e+00 0.0000000e+00 
6.3266667e+00 6.0300000e+00 0.0000000e+00 
6.3533333e+00 5.9700000e+00 0.0000000e+00 
6.3533333e+00 5.9900000e+00 0.0000000e+00 
6.3533333e+00 6.0100000e+00 0.0000000e+00 
6.3533333e+00 6.0300000e+00 0.0000000e+00 
6.3800000e+00 5.9700000e+00 0.0000000e+00 
6.3800000e+00 5.9900000e+00 0.0000000e+00 
6.3800000e+00 6.0100000e+00 0.0000000e+00 
6.3800000e+00 6.0300000e+00 0.0000000e+00 
6.4066667e+00 5.9700000e+00 0.0000000e+00 
6.4066667e+00 5.9900000e+00 0.0000000e+00 
6.4066667e+00 6.0100000e+00 0.0000000e+00 
6.4066667e+00 6.0300000e+00 0.0000000e+00 
6.4333333e+00 5.9700000e+00 0.0000000e+00 
6.4333333e+00 5.9900000e+00 0.0000000e+00 
6.4333333e+00 6.0100000e+00 0.0000000e+00 
6.4333333e+00 6.0300000e+00 0.0000000e+00 
6.4600000e+00 5.9700000e+00 0.0000000e+00 
6.4600000e+00 5.9900000e+00 0.0000000e+00 
6.4600000e+00 6.0100000e+00 0.0000000e+00 
6.4600000e+00 6.0300000e+00 0.0000000e+00 
6.4866667e+00 5.9700000e+00 0.0000000e+00 
6.4866667e+00 5.9900000e+00 0.0000000e+00 
6.4866667e+00 6.0100000e+00 0.0000000e+00 
6.4866667e+00 6.0300000e+00 0.0000000e+00 
6.5133333e+00 5.9700000e+00 0.0000000e+00 
6.5133333e+00 5.9900000e+00 0.0000000e+00 
6.5133333e+00 6.0100000e+00 0.0000000e+00 
6.5133333e+00 6.0300000e+00 0.0000000e+00 
6.5400000e+00 5.9700000e+00 0.0000000e+00 
6.5400000e+00 5.9900000e+00 0.0000000e+00 
6.5400000e+00 6.0100000e+00 0.0000000e+00 
6.5400000e+00 6.0300000e+00 0.0000000e+00 
6.5666667e+00 5.9700000e+00 0.0000000e+00 
6.5666667e+00 5.9900000e+00 0.0000000e+00 
6.5666667e+00 6.0100000e+00 0.0000000e+00 
6.5666667e+00 6.0300000e+00 0.0000000e+00 
6.5933333e+00 5.9700000e+00 0.0000000e+00 
6.5933333e+00 5.9900000e+00 0.0000000e+00 
6.5933333e+00 6.0100000e+00 0.0000000e+00 
6.5933333e+00 6.0300000e+00 0.0000000e+00 
6.6200000e+00 5.9700000e+00 0.0000000e+00 
6.6200000e+00 5.9900000e+00 0.0000000e+00 
6.6200000e+00 6.0100000e+00 0.0000000e+00 
6.6200000e+00 6.0300000e+00 0.0000000e+00 
6.6466667e+00 5.9700000e+00 0.0000000e+00 
6.6466667e+00 5.9900000e+00 0.0000000e+00 
6.6466667e+00 6.0100000e+00 0.0000000e+00 
6.6466667e+00 6.0300000e+00 0.0000000e+00 
6.6733333e+00 5.9700000e+00 0.0000000e+00 
6.6733333e+00 5.9900000e+00 0.0000000e+00 
6.6733333e+00 6.0100000e+00 0.0000000e+00 
6.6733333e+00 6.0300000e+00 0.0000000e+00 
6.7000000e+00 5.9700000e+00 0.0000000e+00 
6.7000000e+00 5.9900000e+00 0.0000000e+00 
6.7000000e+00 6.0100000e+00 0.0000000e+00 
6.7000000e+00 6.0300000e+00 0.0000000e+00 
6.7266667e+00 5.9700000e+00 0.0000000e+00 
6.7266667e+00 5.9900000e+00 0.0000000e+00 
6.7266667e+00 6.0100000e+00 0.0000000e+00 
6.7266667e+00 6.0300000e+00 0.0000000e+00 
6.7533333e+00 5.9700000e+00 0.0000000e+00 
6.7533333e+00 5.9900000e+00 0.0000000e+00 
6.7533333e+00 6.0100000e+00 0.0000000e+00 
6.7533333e+00 6.0300000e+00 0.0000000e+00 
6.7800000e+00 5.9700000e+00 0.0000000e+00 
6.7800000e+00 5.9900000e+00 0.0000000e+00 
6.7800000e+00 6.0100000e+00 0.0000000e+00 
6.7800000e+00 6.0300000e+00 0.0000000e+00 
6.8066667e+00 5.9700000e+00 0.0000000e+00 
6.8066667e+00 5.9900000e+00 0.0000000e+00 
6.8066667e+00 6.0100000e+00 0.0000000e+00 
6.8066667e+00 6.0300000e+00 0.0000000e+00 
6.8333333e+00 5.9700000e+00 0.0000000e+00 
6.8333333e+00 5.9900000e+00 0.0000000e+00 
6.8333333e+00 6.0100000e+00 0.0000000e+00 
6.8333333e+00 6.0300000e+00 0.0000000e+00 
6.8600000e+00 5.9700000e+00 0.0000000e+00 
6.8600000e+00 5.9900000e+00 0.0000000e+00 
6.8600000e+00 6.0100000e+00 0.0000000e+00 
6.8600000e+00 6.0300000e+00 0.0000000e+00 
6.8866667e+00 5.9700000e+00 0.0000000e+00 
6.8866667e+00 5.9900000e+00 0.0000000e+00 
6.8866667e+00 6.0100000e+00 0.0000000e+00 
6.8866667e+00 6.0300000e+00 0.0000000e+00 
6.9133333e+00 5.9700000e+00 0.0000000e+00 
6.9133333e+00 5.9900000e+00 0.0000000e+00 
6.9133333e+00 6.0100000e+00 0.0000000e+00 
6.9133333e+00 6.0300000e+00 0.0000000e+00 
6.9400000e+00 5.9700000e+00 0.0000000e+00 
6.9400000e+00 5.9900000e+00 0.0000000e+00 
6.9400000e+00 6.0100000e+00 0.0000000e+00 
6.9400000e+00 6.0300000e+00 0.0000000e+00 
6.9666667e+00 5.9700000e+00 0.0000000e+00 
6.9666667e+00 5.9900000e+00 0.0000000e+00 
6.9666667e+00 6.0100000e+00 0.0000000e+00 
6.9666667e+00 6.0300000e+00 0.0000000e+00 
6.9933333e+00 5.9700000e+00 0.0000000e+00 
6.9933333e+00 5.9900000e+00 0.0000000e+00 
6.9933333e+00 6.0100000e+00 0.0000000e+00 
6.9933333e+00 6.0300000e+00 0.0000000e+00 
7.0200000e+00 5.9700000e+00 0.0000000e+00 
7.0200000e+00 5.9900000e+00 0.0000000e+00 
[...]
POINT_DATA 604
FIELD FieldData 2
DISPLACEMENT 3 604  float
0.0000000e+00 0.0000000e+00 0.0000000e+00 
0.0000000e+00 0.0000000e+00 0.0000000e+00 
4.2223610e-05 2.5567901e-05 0.0000000e+00 
1.3527733e-05 1.6641837e-05 0.0000000e+00 
0.0000000e+00 0.0000000e+00 0.0000000e+00 
-1.3200971e-05 1.6580157e-05 0.0000000e+00 
8.5012452e-05 8.1637326e-05 0.0000000e+00 
2.8484796e-05 7.4389253e-05 0.0000000e+00 
0.0000000e+00 0.0000000e+00 0.0000000e+00 
-4.1959993e-05 2.5319086e-05 0.0000000e+00 
-2.8008140e-05 7.4357416e-05 0.0000000e+00 
1.2702350e-04 1.7691243e-04 0.0000000e+00 
-8.4583781e-05 8.1658004e-05 0.0000000e+00 
4.2373469e-05 1.6934689e-04 0.0000000e+00 
-4.1947921e-05 1.6913912e-04 0.0000000e+00 
-1.2665889e-04 1.7617649e-04 0.0000000e+00 
1.6811326e-04 3.0870729e-04 0.0000000e+00 
5.5963955e-05 3.0133351e-04 0.0000000e+00 
-5.5900870e-05 3.0106265e-04 0.0000000e+00 
-1.6812521e-04 3.0802286e-04 0.0000000e+00 
2.0825195e-04 4.7734498e-04 0.0000000e+00 
6.9099611e-05 4.6974865e-04 0.0000000e+00 
-6.9798154e-05 4.6922570e-04 0.0000000e+00 
-2.0906761e-04 4.7568872e-04 0.0000000e+00 
2.4742502e-04 6.8129970e-04 0.0000000e+00 
8.1751423e-05 6.7379417e-04 0.0000000e+00 
-8.3700504e-05 6.7318570e-04 0.0000000e+00 
-2.4955985e-04 6.7951103e-04 0.0000000e+00 
2.8562793e-04 9.2058846e-04 0.0000000e+00 
9.3807893e-05 9.1297420e-04 0.0000000e+00 
-9.7736447e-05 9.1213339e-04 0.0000000e+00 
-2.8960309e-04 9.1810795e-04 0.0000000e+00 
3.2277200e-04 1.1945980e-03 0.0000000e+00 
1.0537386e-04 1.1866684e-03 0.0000000e+00 
-1.1180136e-04 1.1854525e-03 0.0000000e+00 
-3.2932915e-04 1.1908558e-03 0.0000000e+00 
3.5892022e-04 1.5020617e-03 0.0000000e+00 
1.1633933e-04 1.4941448e-03 0.0000000e+00 
-1.2602301e-04 1.4927266e-03 0.0000000e+00 
-3.6875570e-04 1.4979350e-03 0.0000000e+00 
3.9398540e-04 1.8432877e-03 0.0000000e+00 
1.2668047e-04 1.8349799e-03 0.0000000e+00 
-1.4043687e-04 1.8331738e-03 0.0000000e+00 
-4.0791609e-04 1.8377411e-03 0.0000000e+00 
4.2800259e-04 2.2167996e-03 0.0000000e+00 
1.3636359e-04 2.2084584e-03 0.0000000e+00 
-1.5507710e-04 2.2063897e-03 0.0000000e+00 
-4.4688930e-04 2.2107248e-03 0.0000000e+00 
4.6088365e-04 2.6229409e-03 0.0000000e+00 
1.4537026e-04 2.6141512e-03 0.0000000e+00 
-1.6997931e-04 2.6116452e-03 0.0000000e+00 
-4.8569009e-04 2.6152907e-03 0.0000000e+00 
4.9268560e-04 3.0602342e-03 0.0000000e+00 
1.5366517e-04 3.0513666e-03 0.0000000e+00 
-1.8517722e-04 3.0485552e-03 0.0000000e+00 
-5.2439274e-04 3.0519320e-03 0.0000000e+00 
5.2331324e-04 3.5290676e-03 0.0000000e+00 
1.6123422e-04 3.5197013e-03 0.0000000e+00 
-2.0070339e-04 3.5164092e-03 0.0000000e+00 
-5.6300090e-04 3.5190550e-03 0.0000000e+00 
5.5283591e-04 4.0279651e-03 0.0000000e+00 
1.6804487e-04 4.0184815e-03 0.0000000e+00 
-2.1658708e-04 4.0148459e-03 0.0000000e+00 
-6.0159304e-04 4.0171913e-03 0.0000000e+00 
5.8115263e-04 4.5573557e-03 0.0000000e+00 
1.7408694e-04 4.5473283e-03 0.0000000e+00 
-2.3285807e-04 4.5431736e-03 0.0000000e+00 
-6.4016079e-04 4.5447519e-03 0.0000000e+00 
6.0834379e-04 5.1157651e-03 0.0000000e+00 
1.7933041e-04 5.1055855e-03 0.0000000e+00 
-2.4954146e-04 5.1010539e-03 0.0000000e+00 
-6.7878752e-04 5.1023040e-03 0.0000000e+00 
6.3430349e-04 5.7036607e-03 0.0000000e+00 
1.8376828e-04 5.6928977e-03 0.0000000e+00 
-2.6666484e-04 5.6878132e-03 0.0000000e+00 
-7.1745227e-04 5.6882652e-03 0.0000000e+00 
6.5912234e-04 6.3195745e-03 0.0000000e+00 
1.8737324e-04 6.3086259e-03 0.0000000e+00 
-2.8424894e-04 6.3031345e-03 0.0000000e+00 
-7.5624339e-04 6.3032315e-03 0.0000000e+00 
6.8268085e-04 6.9640045e-03 0.0000000e+00 
1.9014592e-04 6.9524429e-03 0.0000000e+00 
-3.0231447e-04 6.9463559e-03 0.0000000e+00 
-7.9513668e-04 6.9456337e-03 0.0000000e+00 
7.0506952e-04 7.6354800e-03 0.0000000e+00 
1.9206561e-04 7.6236882e-03 0.0000000e+00 
-3.2087919e-04 7.6172183e-03 0.0000000e+00 
-8.3423294e-04 7.6161005e-03 0.0000000e+00 
7.2626000e-04 8.3342964e-03 0.0000000e+00 
1.9303805e-04 8.3220686e-03 0.0000000e+00 
-3.4005338e-04 8.3150714e-03 0.0000000e+00 
-8.7345967e-04 8.3133408e-03 0.0000000e+00 
7.4617797e-04 9.0599990e-03 0.0000000e+00 
1.9321100e-04 9.0471235e-03 0.0000000e+00 
-3.5968933e-04 9.0394603e-03 0.0000000e+00 
-9.1292226e-04 9.0368956e-03 0.0000000e+00 
7.6495402e-04 9.8113900e-03 0.0000000e+00 
1.9248545e-04 9.7982623e-03 0.0000000e+00 
-3.7989749e-04 9.7901473e-03 0.0000000e+00 
-9.5264910e-04 9.7871767e-03 0.0000000e+00 
7.8245819e-04 1.0589061e-02 0.0000000e+00 
1.9086118e-04 1.0575245e-02 0.0000000e+00 
-4.0069318e-04 1.0566490e-02 0.0000000e+00 
-9.9258566e-04 1.0562649e-02 0.0000000e+00 
7.9880029e-04 1.1391571e-02 0.0000000e+00 
1.8832142e-04 1.1377487e-02 0.0000000e+00 
-4.2208072e-04 1.1368249e-02 0.0000000e+00 
-1.0328490e-03 1.1363992e-02 0.0000000e+00 
8.1385167e-04 1.2219524e-02 0.0000000e+00 
1.8486994e-04 1.2204729e-02 0.0000000e+00 
-4.4408032e-04 1.2194835e-02 0.0000000e+00 
-1.0733648e-03 1.2189691e-02 0.0000000e+00 
8.2773819e-04 1.3071486e-02 0.0000000e+00 
1.8048646e-04 1.3056407e-02 0.0000000e+00 
-4.6669756e-04 1.3046014e-02 0.0000000e+00 
-1.1142465e-03 1.3040440e-02 0.0000000e+00 
8.4032555e-04 1.3948080e-02 0.0000000e+00 
1.7517632e-04 1.3932273e-02 0.0000000e+00 
-4.8995162e-04 1.3921209e-02 0.0000000e+00 
-1.1554105e-03 1.3914739e-02 0.0000000e+00 
8.5174645e-04 1.4847882e-02 0.0000000e+00 
1.6892067e-04 1.4831775e-02 0.0000000e+00 
-5.1384509e-04 1.4820199e-02 0.0000000e+00 
-1.1969744e-03 1.4813286e-02 0.0000000e+00 
8.6186169e-04 1.5771525e-02 0.0000000e+00 
1.6172667e-04 1.5754678e-02 0.0000000e+00 
-5.3839586e-04 1.5742420e-02 0.0000000e+00 
-1.2388460e-03 1.5734603e-02 0.0000000e+00 
8.7081073e-04 1.6717598e-02 0.0000000e+00 
1.5357662e-04 1.6700438e-02 0.0000000e+00 
-5.6360391e-04 1.6687658e-02 0.0000000e+00 
-1.2811465e-03 1.6679388e-02 0.0000000e+00 
8.7845000e-04 1.7686742e-02 0.0000000e+00 
1.4447925e-04 1.7668831e-02 0.0000000e+00 
-5.8948610e-04 1.7655361e-02 0.0000000e+00 
-1.3237752e-03 1.7646182e-02 0.0000000e+00 
8.8492585e-04 1.8677562e-02 0.0000000e+00 
1.3441822e-04 1.8659325e-02 0.0000000e+00 
-6.1603959e-04 1.8645323e-02 0.0000000e+00 
-1.3668563e-03 1.8635682e-02 0.0000000e+00 
8.9008173e-04 1.9690698e-02 0.0000000e+00 
1.2340847e-04 1.9671710e-02 0.0000000e+00 
-6.4327512e-04 1.9656998e-02 0.0000000e+00 
-1.4102903e-03 1.9646450e-02 0.0000000e+00 
8.9406027e-04 2.0724762e-02 0.0000000e+00 
1.1144138e-04 2.0705423e-02 0.0000000e+00 
-6.7119041e-04 2.0690222e-02 0.0000000e+00 
-1.4542108e-03 2.0679187e-02 0.0000000e+00 
8.9681000e-04 2.1780172e-02 0.0000000e+00 
9.8432769e-05 2.1760281e-02 0.0000000e+00 
-6.9987793e-04 2.1744458e-02 0.0000000e+00 
-1.4984893e-03 2.1732732e-02 0.0000000e+00 
8.9826082e-04 2.2856546e-02 0.0000000e+00 
8.4540265e-05 2.2835910e-02 0.0000000e+00 
-7.2918036e-04 2.2819341e-02 0.0000000e+00 
-1.5432069e-03 2.2806725e-02 0.0000000e+00 
8.9857555e-04 2.3952787e-02 0.0000000e+00 
6.9675368e-05 2.3931803e-02 0.0000000e+00 
-7.5918822e-04 2.3914703e-02 0.0000000e+00 
-1.5884075e-03 2.3901608e-02 0.0000000e+00 
8.9759069e-04 2.5069543e-02 0.0000000e+00 
5.3849055e-05 2.5047797e-02 0.0000000e+00 
-7.8990712e-04 2.5029996e-02 0.0000000e+00 
-1.6339747e-03 2.5015996e-02 0.0000000e+00 
8.9546409e-04 2.6205476e-02 0.0000000e+00 
3.7052265e-05 2.6183384e-02 0.0000000e+00 
-8.2132309e-04 2.6165039e-02 0.0000000e+00 
-1.6800507e-03 2.6150561e-02 0.0000000e+00 
8.9203361e-04 2.7361225e-02 0.0000000e+00 
1.9301320e-05 2.7338371e-02 0.0000000e+00 
-8.5344783e-04 2.7319325e-02 0.0000000e+00 
-1.7265045e-03 2.7303945e-02 0.0000000e+00 
8.8747152e-04 2.8535463e-02 0.0000000e+00 
5.8304740e-07 2.8512261e-02 0.0000000e+00 
-8.8626974e-04 2.8492672e-02 0.0000000e+00 
-1.7734723e-03 2.8476815e-02 0.0000000e+00 
8.8161121e-04 2.9728825e-02 0.0000000e+00 
-1.9084867e-05 2.9704865e-02 0.0000000e+00 
-9.1979983e-04 2.9684580e-02 0.0000000e+00 
-1.8208187e-03 2.9667826e-02 0.0000000e+00 
8.7463058e-04 3.0940001e-02 0.0000000e+00 
-3.9714868e-05 3.0915694e-02 0.0000000e+00 
-9.5402468e-04 3.0894867e-02 0.0000000e+00 
-1.8686816e-03 3.0877639e-02 0.0000000e+00 
8.6635902e-04 3.2169618e-02 0.0000000e+00 
-6.1287543e-05 3.2144559e-02 0.0000000e+00 
-9.8895428e-04 3.2123042e-02 0.0000000e+00 
-1.9169211e-03 3.2104925e-02 0.0000000e+00 
8.5698026e-04 3.3416382e-02 0.0000000e+00 
-8.3814857e-05 3.3390978e-02 0.0000000e+00 
-1.0245737e-03 3.3368924e-02 0.0000000e+00 
-1.9656766e-03 3.3350335e-02 0.0000000e+00 
8.4631995e-04 3.4680913e-02 0.0000000e+00 
-1.0727588e-04 3.4654765e-02 0.0000000e+00 
-1.0608920e-03 3.4632027e-02 0.0000000e+00 
-2.0148037e-03 3.4612560e-02 0.0000000e+00 
8.3456783e-04 3.5961931e-02 0.0000000e+00 
-1.3168190e-04 3.5935441e-02 0.0000000e+00 
-1.0978925e-03 3.5912173e-02 0.0000000e+00 
-2.0644426e-03 3.5892236e-02 0.0000000e+00 
8.2153758e-04 3.7260049e-02 0.0000000e+00 
-1.5700621e-04 3.7232829e-02 0.0000000e+00 
-1.1355786e-03 3.7208873e-02 0.0000000e+00 
-2.1144533e-03 3.7188074e-02 0.0000000e+00 
8.0741467e-04 3.8573991e-02 0.0000000e+00 
-1.8325202e-04 3.8546419e-02 0.0000000e+00 
-1.1739365e-03 3.8521985e-02 0.0000000e+00 
-2.1649817e-03 3.8500709e-02 0.0000000e+00 
7.9212360e-04 3.9904159e-02 0.0000000e+00 
-2.1048936e-04 3.9876059e-02 0.0000000e+00 
-1.2130409e-03 3.9851032e-02 0.0000000e+00 
-2.2158744e-03 3.9829099e-02 0.0000000e+00 
7.7560288e-04 4.1250207e-02 0.0000000e+00 
-2.3856355e-04 4.1221404e-02 0.0000000e+00 
-1.2527380e-03 4.1195675e-02 0.0000000e+00 
-2.2671916e-03 4.1172912e-02 0.0000000e+00 
7.5804066e-04 4.2611112e-02 0.0000000e+00 
-2.6755136e-04 4.2581984e-02 0.0000000e+00 
-1.2930994e-03 4.2555759e-02 0.0000000e+00 
-2.3189826e-03 4.2532543e-02 0.0000000e+00 
7.3924524e-04 4.3987482e-02 0.0000000e+00 
-2.9743108e-04 4.3957651e-02 0.0000000e+00 
-1.3341224e-03 4.3930779e-02 0.0000000e+00 
-2.3710974e-03 4.3906730e-02 0.0000000e+00 
7.1941432e-04 4.5378064e-02 0.0000000e+00 
-3.2820839e-04 4.5347925e-02 0.0000000e+00 
-1.3757813e-03 4.5320559e-02 0.0000000e+00 
-2.4236853e-03 4.5296072e-02 0.0000000e+00 
6.9835817e-04 4.6783454e-02 0.0000000e+00 
-3.5985557e-04 4.6752625e-02 0.0000000e+00 
-1.4180799e-03 4.6724625e-02 0.0000000e+00 
-2.4765841e-03 4.6699320e-02 0.0000000e+00 
6.7628595e-04 4.8202399e-02 0.0000000e+00 
-3.9238193e-04 4.8171275e-02 0.0000000e+00 
-1.4609949e-03 4.8142795e-02 0.0000000e+00 
-2.5299362e-03 4.8117064e-02 0.0000000e+00 
6.5300577e-04 4.9635490e-02 0.0000000e+00 
-4.2575880e-04 4.9603693e-02 0.0000000e+00 
-1.5045293e-03 4.9574596e-02 0.0000000e+00 
-2.5835760e-03 4.9548063e-02 0.0000000e+00 
6.2872976e-04 5.1081478e-02 0.0000000e+00 
-4.5999446e-04 5.1049402e-02 0.0000000e+00 
-1.5486581e-03 5.1019840e-02 0.0000000e+00 
-2.6376471e-03 5.0992896e-02 0.0000000e+00 
6.0326490e-04 5.2540947e-02 0.0000000e+00 
-4.9505902e-04 5.2508216e-02 0.0000000e+00 
-1.5933835e-03 5.2478055e-02 0.0000000e+00 
-2.6919804e-03 5.2450328e-02 0.0000000e+00 
5.7682609e-04 5.4012652e-02 0.0000000e+00 
-5.3095978e-04 5.3979659e-02 0.0000000e+00 
-1.6386791e-03 5.3949051e-02 0.0000000e+00 
-2.7467204e-03 5.3920928e-02 0.0000000e+00 
5.4922006e-04 5.5497168e-02 0.0000000e+00 
-5.6766587e-04 5.5463541e-02 0.0000000e+00 
-1.6845461e-03 5.5432353e-02 0.0000000e+00 
-2.8016942e-03 5.5403467e-02 0.0000000e+00 
5.2066432e-04 5.6993256e-02 0.0000000e+00 
-6.0518333e-04 5.6959385e-02 0.0000000e+00 
-1.7309567e-03 5.6927767e-02 0.0000000e+00 
-2.8570472e-03 5.6898501e-02 0.0000000e+00 
4.9095804e-04 5.8501480e-02 0.0000000e+00 
-6.4347636e-04 5.8467002e-02 0.0000000e+00 
-1.7779067e-03 5.8434813e-02 0.0000000e+00 
-2.9126108e-03 5.8404810e-02 0.0000000e+00 
4.6031117e-04 6.0020598e-02 0.0000000e+00 
-6.8254173e-04 5.9985880e-02 0.0000000e+00 
-1.8253723e-03 5.9953325e-02 0.0000000e+00 
-2.9685360e-03 5.9922947e-02 0.0000000e+00 
4.2863822e-04 6.1550975e-02 0.0000000e+00 
-7.2243858e-04 6.1515855e-02 0.0000000e+00 
-1.8734138e-03 6.1482830e-02 0.0000000e+00 
-3.0246502e-03 6.1451917e-02 0.0000000e+00 
3.9588734e-04 6.3092247e-02 0.0000000e+00 
-7.6301207e-04 6.3056565e-02 0.0000000e+00 
-1.9218774e-03 6.3022976e-02 0.0000000e+00 
-3.0809948e-03 6.2991373e-02 0.0000000e+00 
3.6225564e-04 6.4643406e-02 0.0000000e+00 
-8.0432709e-04 6.4607530e-02 0.0000000e+00 
-1.9708186e-03 6.4573577e-02 0.0000000e+00 
-3.1376226e-03 6.4541637e-02 0.0000000e+00 
3.2755065e-04 6.6204994e-02 0.0000000e+00 
-8.4635488e-04 6.6168572e-02 0.0000000e+00 
-2.0202277e-03 6.6134119e-02 0.0000000e+00 
-3.1943554e-03 6.6101500e-02 0.0000000e+00 
2.9198262e-04 6.7775786e-02 0.0000000e+00 
-8.8909267e-04 6.7739197e-02 0.0000000e+00 
-2.0700679e-03 6.7704392e-02 0.0000000e+00 
-3.2513500e-03 6.7671464e-02 0.0000000e+00 
2.5536665e-04 6.9356299e-02 0.0000000e+00 
-9.3250574e-04 6.9319191e-02 0.0000000e+00 
-2.1203370e-03 6.9283912e-02 0.0000000e+00 
-3.3084170e-03 6.9250331e-02 0.0000000e+00 
2.1791980e-04 7.0945318e-02 0.0000000e+00 
-9.7659400e-04 7.0908066e-02 0.0000000e+00 
-2.1710007e-03 7.0872461e-02 0.0000000e+00 
-3.3657086e-03 7.0838595e-02 0.0000000e+00 
1.7946094e-04 7.2543343e-02 0.0000000e+00 
-1.0213222e-03 7.2505604e-02 0.0000000e+00 
-2.2220567e-03 7.2469554e-02 0.0000000e+00 
-3.4230332e-03 7.2435064e-02 0.0000000e+00 
1.4020607e-04 7.4149178e-02 0.0000000e+00 
-1.0666888e-03 7.4111318e-02 0.0000000e+00 
-2.2734699e-03 7.4074968e-02 0.0000000e+00 
-3.4805458e-03 7.4040217e-02 0.0000000e+00 
9.9978355e-05 7.5763302e-02 0.0000000e+00 
-1.1126576e-03 7.5724987e-02 0.0000000e+00 
-2.3252381e-03 7.5688221e-02 0.0000000e+00 
-3.5380526e-03 7.5652877e-02 0.0000000e+00 
5.8992881e-05 7.7384539e-02 0.0000000e+00 
-1.1592260e-03 7.7346127e-02 0.0000000e+00 
-2.3773255e-03 7.7309089e-02 0.0000000e+00 
-3.5957118e-03 7.7273511e-02 0.0000000e+00 
1.7077229e-05 7.9013350e-02 0.0000000e+00 
-1.2063574e-03 7.8974516e-02 0.0000000e+00 
-2.4297301e-03 7.8937092e-02 0.0000000e+00 
-3.6533274e-03 7.8900953e-02 0.0000000e+00 
-2.5554177e-05 8.0648585e-02 0.0000000e+00 
-1.2540477e-03 8.0609676e-02 0.0000000e+00 
-2.4824156e-03 8.0572008e-02 0.0000000e+00 
-3.7110604e-03 8.0535660e-02 0.0000000e+00 
-6.9076151e-05 8.2290684e-02 0.0000000e+00 
-1.3022565e-03 8.2251390e-02 0.0000000e+00 
-2.5353767e-03 8.2213357e-02 0.0000000e+00 
-3.7687200e-03 8.2176484e-02 0.0000000e+00 
-1.1328371e-04 8.3938517e-02 0.0000000e+00 
-1.3509715e-03 8.3899161e-02 0.0000000e+00 
-2.5885818e-03 8.3860946e-02 0.0000000e+00 
-3.8264739e-03 8.3823882e-02 0.0000000e+00 
-1.5824472e-04 8.5592350e-02 0.0000000e+00 
-1.4002341e-03 8.5552793e-02 0.0000000e+00 
-2.6420826e-03 8.5514314e-02 0.0000000e+00 
-3.8841420e-03 8.5476919e-02 0.0000000e+00 
-2.0398552e-04 8.7251816e-02 0.0000000e+00 
-1.4499016e-03 8.7211931e-02 0.0000000e+00 
-2.6957374e-03 8.7173107e-02 0.0000000e+00 
-3.9417640e-03 8.7135250e-02 0.0000000e+00 
-2.5031945e-04 8.8916034e-02 0.0000000e+00 
-1.5000205e-03 8.8876130e-02 0.0000000e+00 
-2.7495920e-03 8.8837141e-02 0.0000000e+00 
-3.9994153e-03 8.8799142e-02 0.0000000e+00 
-2.9740493e-04 9.0585415e-02 0.0000000e+00 
-1.5505585e-03 9.0545203e-02 0.0000000e+00 
-2.8036385e-03 9.0505935e-02 0.0000000e+00 
-4.0569028e-03 9.0467494e-02 0.0000000e+00 
-3.4504267e-04 9.2258915e-02 0.0000000e+00 
-1.6015059e-03 9.2218709e-02 0.0000000e+00 
-2.8578379e-03 9.2179293e-02 0.0000000e+00 
-4.1144079e-03 9.2140744e-02 0.0000000e+00 
-3.9338322e-04 9.3936925e-02 0.0000000e+00 
-1.6528246e-03 9.3896441e-02 0.0000000e+00 
-2.9121919e-03 9.3856777e-02 0.0000000e+00 
-4.1717287e-03 9.3817818e-02 0.0000000e+00 
-4.4222247e-04 9.5618440e-02 0.0000000e+00 
-1.7045088e-03 9.5577982e-02 0.0000000e+00 
-2.9666654e-03 9.5538197e-02 0.0000000e+00 
-4.2290458e-03 9.5499159e-02 0.0000000e+00 
-4.9170692e-04 9.7303842e-02 0.0000000e+00 
-1.7565205e-03 9.7263136e-02 0.0000000e+00 
-3.0212620e-03 9.7223131e-02 0.0000000e+00 
-4.2861569e-03 9.7183715e-02 0.0000000e+00 
-5.4163460e-04 9.8992167e-02 0.0000000e+00 
-1.8088542e-03 9.8951506e-02 0.0000000e+00 
-3.0759475e-03 9.8911406e-02 0.0000000e+00 
-4.3432492e-03 9.8871940e-02 0.0000000e+00 
-5.9214807e-04 1.0068379e-01 0.0000000e+00 
-1.8614719e-03 1.0064291e-01 0.0000000e+00 
-3.1307277e-03 1.0060262e-01 0.0000000e+00 
-4.4001196e-03 1.0056281e-01 0.0000000e+00 
-6.4304743e-04 1.0237780e-01 0.0000000e+00 
-1.9143688e-03 1.0233698e-01 0.0000000e+00 
-3.1855695e-03 1.0229661e-01 0.0000000e+00 
-4.4569618e-03 1.0225678e-01 0.0000000e+00 
-6.9447172e-04 1.0407456e-01 0.0000000e+00 
-1.9675075e-03 1.0403355e-01 0.0000000e+00 
-3.2404811e-03 1.0399301e-01 0.0000000e+00 
-4.5135720e-03 1.0395287e-01 0.0000000e+00 
-7.4622291e-04 1.0577321e-01 0.0000000e+00 
-2.0208838e-03 1.0573227e-01 0.0000000e+00 
-3.2954305e-03 1.0569169e-01 0.0000000e+00 
-4.5701504e-03 1.0565154e-01 0.0000000e+00 
-7.9844268e-04 1.0747412e-01 0.0000000e+00 
-2.0744586e-03 1.0743301e-01 0.0000000e+00 
-3.3504260e-03 1.0739227e-01 0.0000000e+00 
-4.6264980e-03 1.0735185e-01 0.0000000e+00 
-8.5094263e-04 1.0917647e-01 0.0000000e+00 
-2.1282225e-03 1.0913543e-01 0.0000000e+00 
-3.4054405e-03 1.0909469e-01 0.0000000e+00 
-4.6828238e-03 1.0905428e-01 0.0000000e+00 
-9.0377506e-04 1.1088051e-01 0.0000000e+00 
-2.1822042e-03 1.1083943e-01 0.0000000e+00 
-3.4605330e-03 1.1079863e-01 0.0000000e+00 
-4.7389537e-03 1.1075810e-01 0.0000000e+00 
-9.5694442e-04 1.1258603e-01 0.0000000e+00 
-2.2362877e-03 1.1254481e-01 0.0000000e+00 
-3.5155886e-03 1.1250386e-01 0.0000000e+00 
-4.7949495e-03 1.1246311e-01 0.0000000e+00 
-1.0102827e-03 1.1429244e-01 0.0000000e+00 
-2.2905112e-03 1.1425132e-01 0.0000000e+00 
-3.5706580e-03 1.1421037e-01 0.0000000e+00 
-4.8509288e-03 1.1416967e-01 0.0000000e+00 
-1.0639240e-03 1.1600018e-01 0.0000000e+00 
-2.3448488e-03 1.1595891e-01 0.0000000e+00 
-3.6257505e-03 1.1591786e-01 0.0000000e+00 
-4.9066992e-03 1.1587695e-01 0.0000000e+00 
-1.1176905e-03 1.1770852e-01 0.0000000e+00 
-2.3992992e-03 1.1766736e-01 0.0000000e+00 
-3.6808374e-03 1.1762632e-01 0.0000000e+00 
-4.9624808e-03 1.1758548e-01 0.0000000e+00 
-1.1717132e-03 1.1941792e-01 0.0000000e+00 
-2.4538315e-03 1.1937662e-01 0.0000000e+00 
-3.7359391e-03 1.1933550e-01 0.0000000e+00 
-5.0180750e-03 1.1929446e-01 0.0000000e+00 
-1.2258114e-03 1.2112771e-01 0.0000000e+00 
-2.5084499e-03 1.2108651e-01 0.0000000e+00 
-3.7910314e-03 1.2104540e-01 0.0000000e+00 
-5.0737005e-03 1.2100445e-01 0.0000000e+00 
-1.2801161e-03 1.2283834e-01 0.0000000e+00 
-2.5631254e-03 1.2279701e-01 0.0000000e+00 
-3.8461378e-03 1.2275583e-01 0.0000000e+00 
-5.1291605e-03 1.2271470e-01 0.0000000e+00 
-1.3344502e-03 1.2454920e-01 0.0000000e+00 
-2.6178641e-03 1.2450797e-01 0.0000000e+00 
-3.9012354e-03 1.2446681e-01 0.0000000e+00 
-5.1846769e-03 1.2442578e-01 0.0000000e+00 
-1.3889450e-03 1.2626076e-01 0.0000000e+00 
-2.6726389e-03 1.2621941e-01 0.0000000e+00 
-3.9563505e-03 1.2617818e-01 0.0000000e+00 
-5.2400551e-03 1.2613699e-01 0.0000000e+00 
-1.4434268e-03 1.2797246e-01 0.0000000e+00 
-2.7274581e-03 1.2793120e-01 0.0000000e+00 
-4.0114618e-03 1.2788999e-01 0.0000000e+00 
-5.2955188e-03 1.2784891e-01 0.0000000e+00 
-1.4980279e-03 1.2968477e-01 0.0000000e+00 
-2.7822967e-03 1.2964340e-01 0.0000000e+00 
-4.0665981e-03 1.2960212e-01 0.0000000e+00 
-5.3508759e-03 1.2956089e-01 0.0000000e+00 
-1.5525782e-03 1.3139720e-01 0.0000000e+00 
-2.8371655e-03 1.3135591e-01 0.0000000e+00 
-4.1217395e-03 1.3131466e-01 0.0000000e+00 
-5.4063501e-03 1.3127353e-01 0.0000000e+00 
-1.6072158e-03 1.3311023e-01 0.0000000e+00 
-2.8920398e-03 1.3306882e-01 0.0000000e+00 
-4.1769147e-03 1.3302750e-01 0.0000000e+00 
-5.4617570e-03 1.3298623e-01 0.0000000e+00 
-1.6617814e-03 1.3482340e-01 0.0000000e+00 
-2.9469266e-03 1.3478205e-01 0.0000000e+00 
-4.2321085e-03 1.3474077e-01 0.0000000e+00 
-5.5173183e-03 1.3469960e-01 0.0000000e+00 
-1.7163430e-03 1.3653712e-01 0.0000000e+00 
-3.0018605e-03 1.3649574e-01 0.0000000e+00 
-4.2873838e-03 1.3645444e-01 0.0000000e+00 
-5.5728805e-03 1.3641324e-01 0.0000000e+00 
-1.7709212e-03 1.3825141e-01 0.0000000e+00 
-3.0567627e-03 1.3820990e-01 0.0000000e+00 
-4.3426636e-03 1.3816851e-01 0.0000000e+00 
-5.6285078e-03 1.3812721e-01 0.0000000e+00 