# vtk DataFile Version 4.0
vtk output
ASCII
DATASET UNSTRUCTURED_GRID
POINTS 604 float
5.5000000e+00 5.9700000e+00 0.0000000e+00 
5.5000000e+00 5.9900000e+00 0.0000000e+00 
5.5266667e+00 5.9700000e+00 0.0000000e+00 
5.5266667e+00 5.9900000e+00 0.0000000e+00 
5.5000000e+00 6.0100000e+00 0.0000000e+00 
5.5266667e+00 6.0100000e+00 0.0000000e+00 
5.5533333e+00 5.9700000e+00 0.0000000e+00 
5.5533333e+00 5.9900000e+00 0.0000000e+00 
5.5000000e+00 6.0300000e+00 0.0000000e+00 
5.5266667e+00 6.0300000e+00 0.0000000e+00 
5.5533333e+00 6.0100000e+00 0.0000000e+00 
5.5800000e+00 5.9700000e+00 0.0000000e+00 
5.5533333e+00 6.0300000e+00 0.0000000e+00 
5.5800000e+00 5.9900000e+00 0.0000000e+00 
5.5800000e+00 6.0100000e+00 0.0000000e+00 
5.5800000e+00 6.0300000e+00 0.0000000e+00 
5.6066667e+00 5.9700000e+00 0.0000000e+00 
5.6066667e+00 5.9900000e+00 0.0000000e+00 
5.6066667e+00 6.0100000e+00 0.0000000e+00 
5.6066667e+00 6.0300000e+00 0.0000000e+00 
5.6333333e+00 5.9700000e+00 0.0000000e+00 
5.6333333e+00 5.9900000e+00 0.0000000e+00 
5.6333333e+00 6.0100000e+00 0.0000000e+00 
5.6333333e+00 6.0300000e+00 0.0000000e+00 
5.6600000e+00 5.9700000e+00 0.0000000e+00 
5.6600000e+00 5.9900000e+00 0.0000000e+00 
5.6600000e+00 6.0100000e+00 0.0000000e+00 
5.6600000e+00 6.0300000e+00 0.0000000e+00 
5.6866667e+00 5.9700000e+00 0.0000000e+00 
5.6866667e+00 5.9900000e+00 0.0000000e+00 
5.6866667e+00 6.0100000e+00 0.0000000e+00 
5.6866667e+00 6.0300000e+00 0.0000000e+00 
5.7133333e+00 5.9700000e+00 0.0000000e+00 
5.7133333e+00 5.9900000e+00 0.0000000e+00 
5.7133333e+00 6.0100000e+00 0.0000000e+00 
5.7133333e+00 6.0300000e+00 0.0000000e+00 
5.7400000e+00 5.9700000e+00 0.0000000e+00 
5.7400000e+00 5.9900000e+00 0.0000000e+00 
5.7400000e+00 6.0100000e+00 0.0000000e+00 
5.7400000e+00 6.0300000e+00 0.0000000e+00 
5.7666667e+00 5.9700000e+00 0.0000000e+00 
5.7666667e+00 5.9900000e+00 0.0000000e+00 
5.7666667e+00 6.0100000e+00 0.0000000e+00 
5.7666667e+00 6.0300000e+00 0.0000000e+00 
5.7933333e+00 5.9700000e+00 0.0000000e+00 
5.7933333e+00 5.9900000e+00 0.0000000e+00 
5.7933333e+00 6.0100000e+00 0.0000000e+00 
5.7933333e+00 6.0300000e+00 0.0000000e+00 
5.8200000e+00 5.9700000e+00 0.0000000e+00 
5.8200000e+00 5.9900000e+00 0.0000000e+00 
5.8200000e+00 6.0100000e+00 0.0000000e+00 
5.8200000e+00 6.0300000e+00 0.0000000e+00 
5.8466667e+00 5.9700000e+00 0.0000000e+00 
5.8466667e+00 5.9900000e+00 0.0000000e+00 
5.8466667e+00 6.0100000e+00 0.0000000e+00 
5.8466667e+00 6.0300000e+00 0.0000000e+00 
5.8733333e+00 5.9700000e+00 0.0000000e+00 
5.8733333e+00 5.9900000e+00 0.0000000e+00 
5.8733333e+00 6.0100000e+00 0.0000000e+00 
5.8733333e+00 6.0300000e+00 0.0000000e+00 
5.9000000e+00 5.9700000e+00 0.0000000e+00 
5.9000000e+00 5.9900000e+00 0.0000000e+00 
5.9000000e+00 6.0100000e+00 0.0000000e+00 
5.9000000e+00 6.0300000e+00 0.0000000e+00 
5.9266667e+00 5.9700000e+00 0.0000000e+00 
5.9266667e+00 5.9900000e+00 0.0000000e+00 
5.9266667e+00 6.0100000e+00 0.0000000e+00 
5.9266667e+00 6.0300000e+00 0.0000000e+00 
5.9533333e+00 5.9700000e+00 0.0000000e+00 
5.9533333e+00 5.9900000e+00 0.0000000e+00 
5.9533333e+00 6.0100000e+00 0.0000000e+00 
5.9533333e+00 6.0300000e+00 0.0000000e+00 
5.9800000e+00 5.9700000e+00 0.0000000e+00 
5.9800000e+00 5.9900000e+00 0.0000000e+00 
5.9800000e+00 6.0100000e+00 0.0000000e+00 
5.9800000e+00 6.0300000e+00 0.0000000e+00 
6.0066667e+00 5.9700000e+00 0.0000000e+00 
6.0066667e+00 5.9900000e+00 0.0000000e+00 
6.0066667e+00 6.0100000e+00 0.0000000e+00 
6.0066667e+00 6.0300000e+00 0.0000000e+00 
6.0333333e+00 5.9700000e+00 0.0000000e+00 
6.0333333e+00 5.9900000e+00 0.0000000e+00 
6.0333333e+00 6.0100000e+00 0.0000000e+00 
6.0333333e+00 6.0300000e+00 0.0000000e+00 
6.0600000e+00 5.9700000e+00 0.0000000e+00 
6.0600000e+00 5.9900000e+00 0.0000000e+00 
6.0600000e+00 6.0100000e+00 0.0000000e+00 
6.0600000e+00 6.0300000e+00 0.0000000e+00 
6.0866667e+00 5.9700000e+00 0.0000000e+00 
6.0866667e+00 5.9900000e+00 0.0000000e+00 
6.0866667e+00 6.0100000e+00 0.0000000e+00 
6.0866667e+00 6.0300000e+00 0.0000000e+00 
6.1133333e+00 5.9700000e+00 0.0000000e+00 
6.1133333e+00 5.9900000e+00 0.0000000e+00 
6.1133333e+00 6.0100000e+00 0.0000000e+00 
6.1133333e+00 6.0300000e+00 0.0000000e+00 
6.1400000e+00 5.9700000e+00 0.0000000e+00 
6.1400000e+00 5.9900000e+00 0.0000000e+00 
6.1400000e+00 6.0100000e+00 0.0000000e+00 
6.1400000e+00 6.0300000e+00 0.0000000e+00 
6.1666667e+00 5.9700000e+00 0.0000000e+00 
6.1666667e+00 5.9900000e+00 0.0000000e+00 
6.1666667e+00 6.0100000e+00 0.0000000e+00 
6.1666667e+00 6.0300000e+00 0.0000000e+00 
6.1933333e+00 5.9700000e+00 0.0000000e+00 
6.1933333e+00 5.9900000e+00 0.0000000e+00 
6.1933333e+00 6.0100000e+00 0.0000000e+00 
6.1933333e+00 6.0300000e+00 0.0000000e+00 
6.2200000e+00 5.9700000e+00 0.0000000e+00 
6.2200000e+00 5.9900000e+00 0.0000000e+00 
6.2200000e+00 6.0100000e+00 0.0000000e+00 
6.2200000e+00 6.0300000e+00 0.0000000e+00 
6.2466667e+00 5.9700000e+00 0.0000000e+00 
6.2466667e+00 5.9900000e+00 0.0000000e+00 
6.2466667e+00 6.0100000e+00 0.0000000e+00 
6.2466667e+00 6.0300000e+00 0.0000000e+00 
6.2733333e+00 5.9700000e+00 0.0000000e+00 
6.2733333e+00 5.9900000e+00 0.0000000e+00 
6.2733333e+00 6.0100000e+00 0.0000000e+00 
6.2733333e+00 6.0300000e+00 0.0000000e+00 
6.3000000e+00 5.9700000e+00 0.0000000e+00 
6.3000000e+00 5.9900000e+00 0.0000000e+00 
6.3000000e+00 6.0100000e+00 0.0000000e+00 
6.3000000e+00 6.0300000e+00 0.0000000e+00 
6.3266667e+00 5.9700000e+00 0.0000000e+00 
6.3266667e+00 5.9900000e+00 0.0000000e+00 
6.3266667e+00 6.0100000e+00 0.0000000e+00 
6.3266667e+00 6.0300000e+00 0.0000000e+00 
6.3533333e+00 5.9700000e+00 0.0000000e+00 
6.3533333e+00 5.9900000e+00 0.0000000e+00 
6.3533333e+00 6.0100000e+00 0.0000000e+00 
6.3533333e+00 6.0300000e+00 0.0000000e+00 
6.3800000e+00 5.9700000e+00 0.0000000e+00 
6.3800000e+00 5.9900000e+00 0.0000000e+00 
6.3800000e+00 6.0100000e+00 0.0000000e+00 
6.3800000e+00 6.0300000e+00 0.0000000e+00 
6.4066667e+00 5.9700000e+00 0.0000000e+00 
6.4066667e+00 5.9900000e+00 0.0000000e+00 
6.4066667e+00 6.0100000e+00 0.0000000e+00 
6.4066667e+00 6.0300000e+00 0.0000000e+00 
6.4333333e+00 5.9700000e+00 0.0000000e+00 
6.4333333e+00 5.9900000e+00 0.0000000e+00 
6.4333333e+00 6.0100000e+00 0.0000000e+00 
6.4333333e+00 6.0300000e+00 0.0000000e+00 
6.4600000e+00 5.9700000e+00 0.0000000e+00 
6.4600000e+00 5.9900000e+00 0.0000000e+00 
6.4600000e+00 6.0100000e+00 0.0000000e+00 
6.4600000e+00 6.0300000e+00 0.0000000e+00 
6.4866667e+00 5.9700000e+00 0.0000000e+00 
6.4866667e+00 5.9900000e+00 0.0000000e+00 
6.4866667e+00 6.0100000e+00 0.0000000e+00 
6.4866667e+00 6.0300000e+00 0.0000000e+00 
6.5133333e+00 5.9700000e+00 0.0000000e+00 
6.5133333e+00 5.9900000e+00 0.0000000e+00 
6.5133333e+00 6.0100000e+00 0.0000000e+00 
6.5133333e+00 6.0300000e+00 0.0000000e+00 
6.5400000e+00 5.9700000e+00 0.0000000e+00 
6.5400000e+00 5.9900000e+00 0.0000000e+00 
6.5400000e+00 6.0100000e+00 0.0000000e+00 
6.5400000e+00 6.0300000e+00 0.0000000e+00 
6.5666667e+00 5.9700000e+00 0.0000000e+00 
6.5666667e+00 5.9900000e+00 0.0000000e+00 
6.5666667e+00 6.0100000e+00 0.0000000e+00 
6.5666667e+00 6.0300000e+00 0.0000000e+00 
6.5933333e+00 5.9700000e+00 0.0000000e+00 
6.5933333e+00 5.9900000e+00 0.0000000e+00 
6.5933333e+00 6.0100000e+00 0.0000000e+00 
6.5933333e+00 6.0300000e+00 0.0000000e+00 
6.6200000e+00 5.9700000e+00 0.0000000e+00 
6.6200000e+00 5.9900000e+00 0.0000000e+00 
6.6200000e+00 6.0100000e+00 0.0000000e+00 
6.6200000e+00 6.0300000e+00 0.0000000e+00 
6.6466667e+00 5.9700000e+00 0.0000000e+00 
6.6466667e+00 5.9900000e+00 0.0000000e+00 
6.6466667e+00 6.0100000e+00 0.0000000e+00 
6.6466667e+00 6.0300000e+00 0.0000000e+00 
6.6733333e+00 5.9700000e+00 0.0000000e+00 
6.6733333e+00 5.9900000e+00 0.0000000e+00 
6.6733333e+00 6.0100000e+00 0.0000000e+00 
6.6733333e+00 6.0300000e+00 0.0000000e+00 
6.7000000e+00 5.9700000e+00 0.0000000e+00 
6.7000000e+00 5.9900000e+00 0.0000000e+00 
6.7000000e+00 6.0100000e+00 0.0000000e+00 
6.7000000e+00 6.0300000e+00 0.0000000e+00 
6.7266667e+00 5.9700000e+00 0.0000000e+00 
6.7266667e+00 5.9900000e+00 0.0000000e+00 
6.7266667e+00 6.0100000e+00 0.0000000e+00 
6.7266667e+00 6.0300000e+00 0.0000000e+00 
6.7533333e+00 5.9700000e+00 0.0000000e+00 
6.7533333e+00 5.9900000e+00 0.0000000e+00 
6.7533333e+00 6.0100000e+00 0.0000000e+00 
6.7533333e+00 6.0300000e+00 0.0000000e+00 
6.7800000e+00 5.9700000e+00 0.0000000e+00 
6.7800000e+00 5.9900000e+00 0.0000000e+00 
6.7800000e+00 6.0100000e+00 0.0000000e+00 
6.7800000e+00 6.0300000e+00 0.0000000e+00 
6.8066667e+00 5.9700000e+00 0.0000000e+00 
6.8066667e+00 5.9900000e+00 0.0000000e+00 
6.8066667e+00 6.0100000e+00 0.0000000e+00 
6.8066667e+00 6.0300000e+00 0.0000000e+00 
6.8333333e+00 5.9700000e+00 0.0000000e+00 
6.8333333e+00 5.9900000e+00 0.0000000e+00 
6.8333333e+00 6.0100000e+00 0.0000000e+00 
6.8333333e+00 6.0300000e+00 0.0000000e+00 
6.8600000e+00 5.9700000e+00 0.0000000e+00 
6.8600000e+00 5.9900000e+00 0.0000000e+00 
6.8600000e+00 6.0100000e+00 0.0000000e+00 
6.8600000e+00 6.0300000e+00 0.0000000e+00 
6.8866667e+00 5.9700000e+00 0.0000000e+00 
6.8866667e+00 5.9900000e+00 0.0000000e+00 
6.8866667e+00 6.0100000e+00 0.0000000e+00 
6.8866667e+00 6.0300000e+00 0.0000000e+00 
6.9133333e+00 5.9700000e+00 0.0000000e+00 
6.9133333e+00 5.9900000e+00 0.0000000e+00 
6.9133333e+00 6.0100000e+00 0.0000000e+00 
6.9133333e+00 6.0300000e+00 0.0000000e+00 
6.9400000e+00 5.9700000e+00 0.0000000e+00 
6.9400000e+00 5.9900000e+00 0.0000000e+00 
6.9400000e+00 6.0100000e+00 0.0000000e+00 
6.9400000e+00 6.0300000e+00 0.0000000e+00 
6.9666667e+00 5.9700000e+00 0.0000000e+00 
6.9666667e+00 5.9900000e+00 0.0000000e+00 
6.9666667e+00 6.0100000e+00 0.0000000e+00 
6.9666667e+00 6.0300000e+00 0.0000000e+00 
6.9933333e+00 5.9700000e+00 0.0000000e+00 
6.9933333e+00 5.9900000e+00 0.0000000e+00 
6.9933333e+00 6.0100000e+00 0.0000000e+00 
6.9933333e+00 6.0300000e+00 0.0000000e+00 
7.0200000e+00 5.9700000e+00 0.0000000e+00 
7.0200000e+00 5.9900000e+00 0.0000000e+00 
[...]
POINT_DATA 604
FIELD FieldData 2
DISPLACEMENT 3 604  float
0.0000000e+00 0.0000000e+00 0.0000000e+00 
0.0000000e+00 0.0000000e+00 0.0000000e+00 
-4.7725073e-05 -2.6811627e-05 0.0000000e+00 
-1.5272977e-05 -1.6678745e-05 0.0000000e+00 
0.0000000e+00 0.0000000e+00 0.0000000e+00 
1.5755856e-05 -1.6768222e-05 0.0000000e+00 
-9.8292668e-05 -8.9963985e-05 0.0000000e+00 
-3.2762915e-05 -8.1167630e-05 0.0000000e+00 
0.0000000e+00 0.0000000e+00 0.0000000e+00 
4.8139452e-05 -2.7160525e-05 0.0000000e+00 
3.3508287e-05 -8.1230612e-05 0.0000000e+00 
-1.5016020e-04 -1.9934046e-04 0.0000000e+00 
9.8978083e-05 -8.9996801e-05 0.0000000e+00 
-4.9933001e-05 -1.9053066e-04 0.0000000e+00 
5.0653006e-05 -1.9083531e-04 0.0000000e+00 
1.5079448e-04 -2.0038478e-04 0.0000000e+00 
-2.0323070e-04 -3.5553129e-04 0.0000000e+00 
-6.7795328e-05 -3.4655651e-04 0.0000000e+00 
6.8023556e-05 -3.4697973e-04 0.0000000e+00 
2.0334401e-04 -3.5662406e-04 0.0000000e+00 
-2.5763132e-04 -5.5852770e-04 0.0000000e+00 
-8.6284492e-05 -5.4987297e-04 0.0000000e+00 
8.5387007e-05 -5.5067697e-04 0.0000000e+00 
2.5655205e-04 -5.6103113e-04 0.0000000e+00 
-3.1340608e-04 -8.1022014e-04 0.0000000e+00 
-1.0550778e-04 -8.0154267e-04 0.0000000e+00 
1.0266681e-04 -8.0254802e-04 0.0000000e+00 
3.1027868e-04 -8.1316680e-04 0.0000000e+00 
-3.7059258e-04 -1.1106606e-03 0.0000000e+00 
-1.2563604e-04 -1.1022388e-03 0.0000000e+00 
1.1964312e-04 -1.1036651e-03 0.0000000e+00 
3.6446766e-04 -1.1148620e-03 0.0000000e+00 
-4.2933435e-04 -1.4606471e-03 0.0000000e+00 
-1.4658898e-04 -1.4527794e-03 0.0000000e+00 
1.3639673e-04 -1.4548474e-03 0.0000000e+00 
4.1888405e-04 -1.4669416e-03 0.0000000e+00 
-4.8960992e-04 -1.8617502e-03 0.0000000e+00 
-1.6856026e-04 -1.8540871e-03 0.0000000e+00 
1.5270964e-04 -1.8566253e-03 0.0000000e+00 
4.7344663e-04 -1.8691727e-03 0.0000000e+00 
-5.5156822e-04 -2.3136304e-03 0.0000000e+00 
-1.9163484e-04 -2.3067138e-03 0.0000000e+00 
1.6846058e-04 -2.3100056e-03 0.0000000e+00 
5.2802611e-04 -2.3236331e-03 0.0000000e+00 
-6.1524636e-04 -2.8180968e-03 0.0000000e+00 
-2.1593080e-04 -2.8115521e-03 0.0000000e+00 
1.8354357e-04 -2.8154964e-03 0.0000000e+00 
5.8246084e-04 -2.8297282e-03 0.0000000e+00 
-6.8080387e-04 -3.3747548e-03 0.0000000e+00 
-2.4153738e-04 -3.3691472e-03 0.0000000e+00 
1.9782230e-04 -3.3740224e-03 0.0000000e+00 
6.3662842e-04 -3.3895077e-03 0.0000000e+00 
-7.4826650e-04 -3.9853987e-03 0.0000000e+00 
-2.6858892e-04 -3.9803469e-03 0.0000000e+00 
2.1118128e-04 -3.9860538e-03 0.0000000e+00 
6.9036486e-04 -4.0023116e-03 0.0000000e+00 
-8.1781067e-04 -4.6495660e-03 0.0000000e+00 
-2.9717921e-04 -4.6456507e-03 0.0000000e+00 
2.2347364e-04 -4.6524762e-03 0.0000000e+00 
7.4354547e-04 -4.6701698e-03 0.0000000e+00 
-8.8946197e-04 -5.3690332e-03 0.0000000e+00 
-3.2745266e-04 -5.3658687e-03 0.0000000e+00 
2.3458034e-04 -5.3737160e-03 0.0000000e+00 
7.9599373e-04 -5.3923619e-03 0.0000000e+00 
-9.6341134e-04 -6.1432747e-03 0.0000000e+00 
-3.5950711e-04 -6.1414559e-03 0.0000000e+00 
2.4434452e-04 -6.1506200e-03 0.0000000e+00 
8.4758450e-04 -6.1708942e-03 0.0000000e+00 
-1.0396850e-03 -6.9740483e-03 0.0000000e+00 
-3.9349666e-04 -6.9731857e-03 0.0000000e+00 
2.5264406e-04 -6.9835718e-03 0.0000000e+00 
8.9812894e-04 -7.0049890e-03 0.0000000e+00 
-1.1184864e-03 -7.8607684e-03 0.0000000e+00 
-4.2952319e-04 -7.8614697e-03 0.0000000e+00 
2.5931212e-04 -7.8733805e-03 0.0000000e+00 
9.4750277e-04 -7.8966272e-03 0.0000000e+00 
-1.1998424e-03 -8.8051690e-03 0.0000000e+00 
-4.6774943e-04 -8.8070443e-03 0.0000000e+00 
2.6422463e-04 -8.8203880e-03 0.0000000e+00 
9.9550535e-04 -8.8449817e-03 0.0000000e+00 
-1.2839793e-03 -9.8066125e-03 0.0000000e+00 
-5.0827437e-04 -9.8102726e-03 0.0000000e+00 
2.6721077e-04 -9.8253738e-03 0.0000000e+00 
1.0420029e-03 -9.8519996e-03 0.0000000e+00 
-1.3709371e-03 -1.0866821e-02 0.0000000e+00 
-5.5126792e-04 -1.0871902e-02 0.0000000e+00 
2.6814750e-04 -1.0888593e-02 0.0000000e+00 
1.0867747e-03 -1.0916799e-02 0.0000000e+00 
-1.4608530e-03 -1.1985394e-02 0.0000000e+00 
-5.9695288e-04 -1.1992233e-02 0.0000000e+00 
2.6674371e-04 -1.2010791e-02 0.0000000e+00 
1.1297542e-03 -1.2040964e-02 0.0000000e+00 
-1.5539334e-03 -1.3162823e-02 0.0000000e+00 
-6.4528081e-04 -1.3171793e-02 0.0000000e+00 
2.6304797e-04 -1.3192489e-02 0.0000000e+00 
1.1706576e-03 -1.3224998e-02 0.0000000e+00 
-1.6501633e-03 -1.4400471e-02 0.0000000e+00 
-6.9651848e-04 -1.4411198e-02 0.0000000e+00 
2.5680339e-04 -1.4433872e-02 0.0000000e+00 
1.2093287e-03 -1.4468268e-02 0.0000000e+00 
-1.7497896e-03 -1.5697540e-02 0.0000000e+00 
-7.5077735e-04 -1.5710655e-02 0.0000000e+00 
2.4781888e-04 -1.5735643e-02 0.0000000e+00 
1.2456401e-03 -1.5772629e-02 0.0000000e+00 
-1.8528544e-03 -1.7055662e-02 0.0000000e+00 
-8.0824188e-04 -1.7070769e-02 0.0000000e+00 
2.3597222e-04 -1.7097987e-02 0.0000000e+00 
1.2793437e-03 -1.7137085e-02 0.0000000e+00 
-1.9596068e-03 -1.8474011e-02 0.0000000e+00 
-8.6902507e-04 -1.8491755e-02 0.0000000e+00 
2.2106034e-04 -1.8521526e-02 0.0000000e+00 
1.3103258e-03 -1.8563450e-02 0.0000000e+00 
-2.0700785e-03 -1.9954192e-02 0.0000000e+00 
-9.3332354e-04 -1.9974177e-02 0.0000000e+00 
2.0295476e-04 -2.0006421e-02 0.0000000e+00 
1.3383406e-03 -2.0050692e-02 0.0000000e+00 
-2.1845275e-03 -2.1495344e-02 0.0000000e+00 
-1.0012521e-03 -2.1518218e-02 0.0000000e+00 
1.8144543e-04 -2.1553259e-02 0.0000000e+00 
1.3632754e-03 -2.1600593e-02 0.0000000e+00 
-2.3029860e-03 -2.3099040e-02 0.0000000e+00 
-1.0730132e-03 -2.3124407e-02 0.0000000e+00 
1.5640386e-04 -2.3162169e-02 0.0000000e+00 
1.3848769e-03 -2.3212094e-02 0.0000000e+00 
-2.4257194e-03 -2.4764387e-02 0.0000000e+00 
-1.1487225e-03 -2.4792899e-02 0.0000000e+00 
1.2761404e-04 -2.4833708e-02 0.0000000e+00 
1.4030338e-03 -2.4886937e-02 0.0000000e+00 
-2.5527593e-03 -2.6492926e-02 0.0000000e+00 
-1.2285880e-03 -2.6524191e-02 0.0000000e+00 
9.4947525e-05 -2.6567973e-02 0.0000000e+00 
1.4174863e-03 -2.6624040e-02 0.0000000e+00 
-2.6843778e-03 -2.8283739e-02 0.0000000e+00 
-1.3127262e-03 -2.8318406e-02 0.0000000e+00 
5.8182668e-05 -2.8365487e-02 0.0000000e+00 
1.4281247e-03 -2.8425105e-02 0.0000000e+00 
-2.8206048e-03 -3.0138325e-02 0.0000000e+00 
-1.4013493e-03 -3.0176010e-02 0.0000000e+00 
1.7191875e-05 -3.0226322e-02 0.0000000e+00 
1.4346839e-03 -3.0289032e-02 0.0000000e+00 
-2.9617293e-03 -3.2055747e-02 0.0000000e+00 
-1.4945673e-03 -3.2097092e-02 0.0000000e+00 
-2.8246251e-05 -3.2150974e-02 0.0000000e+00 
1.4370452e-03 -3.2217475e-02 0.0000000e+00 
-3.1077932e-03 -3.4037477e-02 0.0000000e+00 
-1.5925955e-03 -3.4082129e-02 0.0000000e+00 
-7.8255843e-05 -3.4139441e-02 0.0000000e+00 
1.4349313e-03 -3.4209308e-02 0.0000000e+00 
-3.2589863e-03 -3.6082837e-02 0.0000000e+00 
-1.6956677e-03 -3.6131150e-02 0.0000000e+00 
-1.3315996e-04 -3.6192179e-02 0.0000000e+00 
1.4282860e-03 -3.6265824e-02 0.0000000e+00 
-3.4155434e-03 -3.8192090e-02 0.0000000e+00 
-1.8037664e-03 -3.8244449e-02 0.0000000e+00 
-1.9293987e-04 -3.8309481e-02 0.0000000e+00 
1.4168098e-03 -3.8387268e-02 0.0000000e+00 
-3.5774521e-03 -4.0366321e-02 0.0000000e+00 
-1.9171865e-03 -4.0422377e-02 0.0000000e+00 
-2.5785171e-04 -4.0491275e-02 0.0000000e+00 
1.4003021e-03 -4.0572795e-02 0.0000000e+00 
-3.7450044e-03 -4.2604523e-02 0.0000000e+00 
-2.0360419e-03 -4.2664901e-02 0.0000000e+00 
-3.2812574e-04 -4.2738000e-02 0.0000000e+00 
1.3786481e-03 -4.2823942e-02 0.0000000e+00 
-3.9182327e-03 -4.4908025e-02 0.0000000e+00 
-2.1605500e-03 -4.4972363e-02 0.0000000e+00 
-4.0387868e-04 -4.5049605e-02 0.0000000e+00 
1.3515593e-03 -4.5139529e-02 0.0000000e+00 
-4.0974272e-03 -4.7275819e-02 0.0000000e+00 
-2.2908219e-03 -4.7344745e-02 0.0000000e+00 
-4.8534679e-04 -4.7426446e-02 0.0000000e+00 
1.3189346e-03 -4.7521045e-02 0.0000000e+00 
-4.2826059e-03 -4.9709191e-02 0.0000000e+00 
-2.4270813e-03 -4.9782345e-02 0.0000000e+00 
-5.7265037e-04 -4.9868450e-02 0.0000000e+00 
1.2804939e-03 -4.9967287e-02 0.0000000e+00 
-4.4740615e-03 -5.2207116e-02 0.0000000e+00 
-2.5694371e-03 -5.2285119e-02 0.0000000e+00 
-6.6602782e-04 -5.2375939e-02 0.0000000e+00 
1.2361368e-03 -5.2479702e-02 0.0000000e+00 
-4.6718071e-03 -5.4770830e-02 0.0000000e+00 
-2.7181137e-03 -5.4853329e-02 0.0000000e+00 
-7.6559638e-04 -5.4948812e-02 0.0000000e+00 
1.1855819e-03 -5.5057066e-02 0.0000000e+00 
-4.8761371e-03 -5.7399294e-02 0.0000000e+00 
-2.8732164e-03 -5.7486900e-02 0.0000000e+00 
-8.7159535e-04 -5.7587355e-02 0.0000000e+00 
1.1287311e-03 -5.7700782e-02 0.0000000e+00 
-5.0870584e-03 -6.0093692e-02 0.0000000e+00 
-3.0349692e-03 -6.0186060e-02 0.0000000e+00 
-9.8413848e-04 -6.0291433e-02 0.0000000e+00 
1.0653025e-03 -6.0409602e-02 0.0000000e+00 
-5.3048659e-03 -6.2852969e-02 0.0000000e+00 
-3.2034737e-03 -6.2950702e-02 0.0000000e+00 
-1.1034654e-03 -6.3061298e-02 0.0000000e+00 
9.9520077e-04 -6.3184884e-02 0.0000000e+00 
-5.5295585e-03 -6.5678256e-02 0.0000000e+00 
-3.3789526e-03 -6.5781014e-02 0.0000000e+00 
-1.2296851e-03 -6.5896782e-02 0.0000000e+00 
9.1814497e-04 -6.6025359e-02 0.0000000e+00 
-5.7614417e-03 -6.8568482e-02 0.0000000e+00 
-3.5614958e-03 -6.8676853e-02 0.0000000e+00 
-1.3630321e-03 -6.8798106e-02 0.0000000e+00 
8.3403349e-04 -6.8932332e-02 0.0000000e+00 
-6.0005197e-03 -7.1524736e-02 0.0000000e+00 
-3.7513245e-03 -7.1638410e-02 0.0000000e+00 
-1.5036072e-03 -7.1765026e-02 0.0000000e+00 
7.4258178e-04 -7.1904499e-02 0.0000000e+00 
-6.2469952e-03 -7.4546173e-02 0.0000000e+00 
-3.9486390e-03 -7.4665467e-02 0.0000000e+00 
-1.6517265e-03 -7.4797711e-02 0.0000000e+00 
6.4374758e-04 -7.4942824e-02 0.0000000e+00 
-6.5010746e-03 -7.7632801e-02 0.0000000e+00 
-4.1534302e-03 -7.7758074e-02 0.0000000e+00 
-1.8073783e-03 -7.7896203e-02 0.0000000e+00 
5.3724155e-04 -7.8047288e-02 0.0000000e+00 
-6.7627060e-03 -8.0785334e-02 0.0000000e+00 
-4.3659679e-03 -8.0916270e-02 0.0000000e+00 
-1.9707823e-03 -8.1060162e-02 0.0000000e+00 
4.2286071e-04 -8.1216824e-02 0.0000000e+00 
-7.0321805e-03 -8.4002619e-02 0.0000000e+00 
-4.5863317e-03 -8.4139776e-02 0.0000000e+00 
-2.1421657e-03 -8.4289725e-02 0.0000000e+00 
3.0051636e-04 -8.4452604e-02 0.0000000e+00 
-7.3094731e-03 -8.7285572e-02 0.0000000e+00 
-4.8147265e-03 -8.7428620e-02 0.0000000e+00 
-2.3216082e-03 -8.7584570e-02 0.0000000e+00 
1.6993007e-04 -8.7753239e-02 0.0000000e+00 
-7.5948684e-03 -9.0633030e-02 0.0000000e+00 
-5.0512219e-03 -9.0782525e-02 0.0000000e+00 
-2.5093356e-03 -9.0944749e-02 0.0000000e+00 
3.1031513e-05 -9.1119849e-02 0.0000000e+00 
-7.8883217e-03 -9.4045857e-02 0.0000000e+00 
-5.2960213e-03 -9.4201468e-02 0.0000000e+00 
-2.7054244e-03 -9.4369908e-02 0.0000000e+00 
-1.1644301e-04 -9.4551003e-02 0.0000000e+00 
-8.1901116e-03 -9.7522864e-02 0.0000000e+00 
-5.5491857e-03 -9.7685134e-02 0.0000000e+00 
-2.9100957e-03 -9.7860054e-02 0.0000000e+00 
-2.7255698e-04 -9.8047777e-02 0.0000000e+00 
-8.5001828e-03 -1.0106485e-01 0.0000000e+00 
-5.8109114e-03 -1.0123345e-01 0.0000000e+00 
-3.1234164e-03 -1.0141479e-01 0.0000000e+00 
-4.3756846e-04 -1.0160870e-01 0.0000000e+00 
-8.8188066e-03 -1.0467061e-01 0.0000000e+00 
-6.0812494e-03 -1.0484607e-01 0.0000000e+00 
-3.3456012e-03 -1.0503408e-01 0.0000000e+00 
-6.1153204e-04 -1.0523481e-01 0.0000000e+00 
-9.1459160e-03 -1.0834088e-01 0.0000000e+00 
-6.3603878e-03 -1.0852287e-01 0.0000000e+00 
-3.5767063e-03 -1.0871749e-01 0.0000000e+00 
-7.9469902e-04 -1.0892459e-01 0.0000000e+00 
-9.4817733e-03 -1.1207443e-01 0.0000000e+00 
-6.6483670e-03 -1.1226346e-01 0.0000000e+00 
-3.8169394e-03 -1.1246493e-01 0.0000000e+00 
-9.8711350e-04 -1.1267901e-01 0.0000000e+00 
-9.8262981e-03 -1.1587192e-01 0.0000000e+00 
-6.9453654e-03 -1.1606767e-01 0.0000000e+00 
-4.0663445e-03 -1.1627592e-01 0.0000000e+00 
-1.1890193e-03 -1.1649654e-01 0.0000000e+00 
-1.0179753e-02 -1.1973209e-01 0.0000000e+00 
-7.2514054e-03 -1.1993505e-01 0.0000000e+00 
-4.3251172e-03 -1.2015034e-01 0.0000000e+00 
-1.4004573e-03 -1.2037808e-01 0.0000000e+00 
-1.0542057e-02 -1.2365557e-01 0.0000000e+00 
-7.5666570e-03 -1.2386544e-01 0.0000000e+00 
-4.5932849e-03 -1.2408761e-01 0.0000000e+00 
-1.6216665e-03 -1.2432205e-01 0.0000000e+00 
-1.0913367e-02 -1.2764127e-01 0.0000000e+00 
-7.8912367e-03 -1.2785829e-01 0.0000000e+00 
-4.8711044e-03 -1.2808755e-01 0.0000000e+00 
-1.8526244e-03 -1.2832903e-01 0.0000000e+00 
-1.1293801e-02 -1.3168887e-01 0.0000000e+00 
-8.2250889e-03 -1.3191332e-01 0.0000000e+00 
-5.1585153e-03 -1.3214986e-01 0.0000000e+00 
-2.0935572e-03 -1.3239865e-01 0.0000000e+00 
-1.1683226e-02 -1.3579863e-01 0.0000000e+00 
-8.5683989e-03 -1.3603020e-01 0.0000000e+00 
-5.4556475e-03 -1.3627386e-01 0.0000000e+00 
-2.3446165e-03 -1.3652952e-01 0.0000000e+00 
-1.2081858e-02 -1.3996917e-01 0.0000000e+00 
-8.9211622e-03 -1.4020830e-01 0.0000000e+00 
-5.7626668e-03 -1.4045931e-01 0.0000000e+00 
-2.6058042e-03 -1.4072240e-01 0.0000000e+00 
-1.2489580e-02 -1.4420092e-01 0.0000000e+00 
-9.2835081e-03 -1.4444727e-01 0.0000000e+00 
-6.0795603e-03 -1.4470553e-01 0.0000000e+00 
-2.8773348e-03 -1.4497558e-01 0.0000000e+00 
-1.2906593e-02 -1.4849249e-01 0.0000000e+00 
-9.6554151e-03 -1.4874650e-01 0.0000000e+00 
-6.4064833e-03 -1.4901219e-01 0.0000000e+00 
-3.1591830e-03 -1.4928975e-01 0.0000000e+00 
-1.3332759e-02 -1.5284424e-01 0.0000000e+00 
-1.0037002e-02 -1.5310557e-01 0.0000000e+00 
-6.7434123e-03 -1.5337859e-01 0.0000000e+00 
-3.4515423e-03 -1.5366319e-01 0.0000000e+00 
-1.3768263e-02 -1.5725476e-01 0.0000000e+00 
-1.0428233e-02 -1.5752382e-01 0.0000000e+00 
-7.0904895e-03 -1.5780434e-01 0.0000000e+00 
-3.7543710e-03 -1.5809651e-01 0.0000000e+00 
-1.4212952e-02 -1.6172433e-01 0.0000000e+00 
-1.0829211e-02 -1.6200079e-01 0.0000000e+00 
-7.4476750e-03 -1.6228869e-01 0.0000000e+00 
-4.0678503e-03 -1.6258795e-01 0.0000000e+00 
-1.4666994e-02 -1.6625151e-01 0.0000000e+00 
-1.1239884e-02 -1.6653576e-01 0.0000000e+00 
-7.8150964e-03 -1.6683120e-01 0.0000000e+00 
-4.3919204e-03 -1.6713807e-01 0.0000000e+00 
-1.5130221e-02 -1.7083654e-01 0.0000000e+00 
-1.1660340e-02 -1.7112822e-01 0.0000000e+00 
-8.1926968e-03 -1.7143109e-01 0.0000000e+00 
-4.7267488e-03 -1.7174508e-01 0.0000000e+00 
-1.5602785e-02 -1.7547794e-01 0.0000000e+00 
-1.2090512e-02 -1.7577743e-01 0.0000000e+00 
-8.5805882e-03 -1.7608786e-01 0.0000000e+00 
-5.0722564e-03 -1.7640946e-01 0.0000000e+00 
-1.6084502e-02 -1.8017586e-01 0.0000000e+00 
-1.2530469e-02 -1.8048281e-01 0.0000000e+00 
-8.9786962e-03 -1.8080068e-01 0.0000000e+00 
-5.4285967e-03 -1.8112941e-01 0.0000000e+00 
-1.6575513e-02 -1.8492881e-01 0.0000000e+00 
-1.2980122e-02 -1.8524358e-01 0.0000000e+00 
-9.3871133e-03 -1.8556902e-01 0.0000000e+00 
-5.7956773e-03 -1.8590533e-01 0.0000000e+00 
-1.7075632e-02 -1.8973690e-01 0.0000000e+00 
-1.3439526e-02 -1.9005915e-01 0.0000000e+00 
-9.8057442e-03 -1.9039196e-01 0.0000000e+00 
-6.1736390e-03 -1.9073539e-01 0.0000000e+00 
-1.7584899e-02 -1.9459878e-01 0.0000000e+00 
-1.3908666e-02 -1.9492863e-01 0.0000000e+00 
-1.0234716e-02 -1.9526890e-01 0.0000000e+00 
-6.5623339e-03 -1.9561969e-01 0.0000000e+00 
-1.8103304e-02 -1.9951376e-01 0.0000000e+00 
-1.4387396e-02 -1.9985137e-01 0.0000000e+00 
-1.0673878e-02 -2.0019920e-01 0.0000000e+00 
-6.9618546e-03 -2.0055746e-01 0.0000000e+00 
-1.8630608e-02 -2.0448159e-01 0.0000000e+00 
-1.4875759e-02 -2.0482663e-01 0.0000000e+00 
-1.1123214e-02 -2.0518179e-01 0.0000000e+00 
-7.3722508e-03 -2.0554709e-01 0.0000000e+00 
-1.9166890e-02 -2.0950073e-01 0.0000000e+00 
-1.5373631e-02 -2.0985345e-01 0.0000000e+00 
-1.1582769e-02 -2.1021604e-01 0.0000000e+00 
-7.7933724e-03 -2.1058875e-01 0.0000000e+00 
-1.9711919e-02 -2.1457103e-01 0.0000000e+00 
-1.5881009e-02 -2.1493109e-01 0.0000000e+00 
-1.2052398e-02 -2.1530094e-01 0.0000000e+00 
-8.2253227e-03 -2.1568059e-01 0.0000000e+00 
-2.0265760e-02 -2.1969094e-01 0.0000000e+00 
-1.6397749e-02 -2.2005860e-01 0.0000000e+00 
-1.2532127e-02 -2.2043576e-01 0.0000000e+00 
-8.6679196e-03 -2.2082271e-01 0.0000000e+00 
-2.0828160e-02 -2.2486027e-01 0.0000000e+00 
-1.6923835e-02 -2.2523516e-01 0.0000000e+00 
-1.3021796e-02 -2.2561947e-01 0.0000000e+00 
-9.1212434e-03 -2.2601324e-01 0.0000000e+00 
-2.1399161e-02 -2.3007743e-01 0.0000000e+00 
-1.7459103e-02 -2.3045979e-01 0.0000000e+00 
-1.3521416e-02 -2.3085129e-01 0.0000000e+00 
-9.5850908e-03 -2.3125222e-01 0.0000000e+00 
-2.1978498e-02 -2.3534219e-01 0.0000000e+00 
-1.8003520e-02 -2.3573165e-01 0.0000000e+00 
-1.4030809e-02 -2.3613016e-01 0.0000000e+00 
-1.0059527e-02 -2.3653776e-01 0.0000000e+00 
-2.2566194e-02 -2.4065293e-01 0.0000000e+00 
-1.8556906e-02 -2.4104971e-01 0.0000000e+00 
-1.4549966e-02 -2.4145525e-01 0.0000000e+00 
-1.0544326e-02 -2.4186984e-01 0.0000000e+00 
-2.3161967e-02 -2.4600937e-01 0.0000000e+00 
-1.9119210e-02 -2.4641309e-01 0.0000000e+00 
-1.5078692e-02 -2.4682547e-01 0.0000000e+00 
-1.1039539e-02 -2.4724656e-01 0.0000000e+00 
-2.3765825e-02 -2.5140989e-01 0.0000000e+00 
-1.9690235e-02 -2.5182074e-01 0.0000000e+00 
-1.5616960e-02 -2.5223996e-01 0.0000000e+00 
-1.1544917e-02 -2.5266785e-01 0.0000000e+00 
-2.4377468e-02 -2.5685412e-01 0.0000000e+00 
-2.0269910e-02 -2.5727173e-01 0.0000000e+00 
-1.6164556e-02 -2.5769760e-01 0.0000000e+00 
-1.2060497e-02 -2.5813179e-01 0.0000000e+00 
-2.4996892e-02 -2.6234044e-01 0.0000000e+00 
-2.0858020e-02 -2.6276498e-01 0.0000000e+00 
-1.6721433e-02 -2.6319749e-01 0.0000000e+00 
-1.2586011e-02 -2.6363825e-01 0.0000000e+00 
-2.5623796e-02 -2.6786845e-01 0.0000000e+00 
-2.1454479e-02 -2.6829955e-01 0.0000000e+00 
-1.7287361e-02 -2.6873845e-01 0.0000000e+00 
-1.3121483e-02 -2.6918530e-01 0.0000000e+00 
-2.6258091e-02 -2.7343663e-01 0.0000000e+00 
-2.2059129e-02 -2.7387428e-01 0.0000000e+00 
-1.7862305e-02 -2.7431953e-01 0.0000000e+00 
-1.3666609e-02 -2.7477256e-01 0.0000000e+00 
-2.6899633e-02 -2.7904398e-01 0.0000000e+00 
-2.2671720e-02 -2.7948821e-01 0.0000000e+00 
-1.8446008e-02 -2.7993977e-01 0.0000000e+00 
-1.4221321e-02 -2.8039898e-01 0.0000000e+00 
-2.7548081e-02 -2.8468987e-01 0.0000000e+00 
-2.3292147e-02 -2.8514029e-01 0.0000000e+00 
-1.9038303e-02 -2.8559789e-01 0.0000000e+00 
-1.4785551e-02 -2.8606281e-01 0.0000000e+00 
-2.8203377e-02 -2.9037260e-01 0.0000000e+00 
-2.3920163e-02 -2.9082932e-01 0.0000000e+00 
-1.9639095e-02 -2.9129293e-01 0.0000000e+00 
-1.5358977e-02 -2.9176375e-01 0.0000000e+00 
-2.8865186e-02 -2.9609165e-01 0.0000000e+00 
-2.4555635e-02 -2.9655427e-01 0.0000000e+00 
-2.0248107e-02 -2.9702364e-01 0.0000000e+00 
-1.5941585e-02 -2.9749989e-01 0.0000000e+00 
-2.9533438e-02 -3.0184531e-01 0.0000000e+00 
-2.5198297e-02 -3.0231395e-01 0.0000000e+00 
-2.0865230e-02 -3.0278902e-01 0.0000000e+00 
-1.6533026e-02 -3.0327087e-01 0.0000000e+00 
-3.0207786e-02 -3.0763304e-01 0.0000000e+00 
-2.5848008e-02 -3.0810728e-01 0.0000000e+00 
-2.1490180e-02 -3.0858781e-01 0.0000000e+00 
-1.7133267e-02 -3.0907478e-01 0.0000000e+00 
-3.0888146e-02 -3.1345312e-01 0.0000000e+00 
-2.6504490e-02 -3.1393306e-01 0.0000000e+00 
-2.2122831e-02 -3.1441899e-01 0.0000000e+00 
-1.7741944e-02 -3.1491124e-01 0.0000000e+00 
-3.1574161e-02 -3.1930501e-01 0.0000000e+00 
-2.7167589e-02 -3.1979023e-01 0.0000000e+00 
-2.2762887e-02 -3.2028129e-01 0.0000000e+00 
-1.8359009e-02 -3.2077834e-01 0.0000000e+00 
-3.2265739e-02 -3.2518696e-01 0.0000000e+00 
-2.7837019e-02 -3.2567755e-01 0.0000000e+00 
-2.3410211e-02 -3.2617366e-01 0.0000000e+00 
-1.8984084e-02 -3.2667566e-01 0.0000000e+00 
-3.2962516e-02 -3.3109841e-01 0.0000000e+00 
-2.8512615e-02 -3.3159394e-01 0.0000000e+00 
-2.4064497e-02 -3.3209486e-01 0.0000000e+00 
-1.9617109e-02 -3.3260131e-01 0.0000000e+00 
-3.3664390e-02 -3.3703762e-01 0.0000000e+00 
-2.9194081e-02 -3.3753818e-01 0.0000000e+00 
-2.4725594e-02 -3.3804380e-01 0.0000000e+00 
-2.0257692e-02 -3.3855485e-01 0.0000000e+00 
-3.4370993e-02 -3.4300402e-01 0.0000000e+00 
-2.9881245e-02 -3.4350917e-01 0.0000000e+00 
-2.5393187e-02 -3.4401924e-01 0.0000000e+00 
-2.0905764e-02 -3.4453440e-01 0.0000000e+00 
-3.5082220e-02 -3.4899586e-01 0.0000000e+00 
-3.0573801e-02 -3.4950568e-01 0.0000000e+00 
-2.6067115e-02 -3.5002010e-01 0.0000000e+00 
-2.1560924e-02 -3.5053949e-01 0.0000000e+00 
-3.5797710e-02 -3.5501258e-01 0.0000000e+00 