# vtk DataFile Version 4.0
vtk output
ASCII
DATASET UNSTRUCTURED_GRID
POINTS 604 float
5.5000000e+00 5.9700000e+00 0.0000000e+00 
5.5000000e+00 5.9900000e+00 0.0000000e+00 
5.5266667e+00 5.9700000e+00 0.0000000e+00 
5.5266667e+00 5.9900000e+00 0.0000000e+00 
5.5000000e+00 6.0100000e+00 0.0000000e+00 
5.5266667e+00 6.0100000e+00 0.0000000e+00 
5.5533333e+00 5.9700000e+00 0.0000000e+00 
5.5533333e+00 5.9900000e+00 0.0000000e+00 
5.5000000e+00 6.0300000e+00 0.0000000e+00 
5.5266667e+00 6.0300000e+00 0.0000000e+00 
5.5533333e+00 6.0100000e+00 0.0000000e+00 
5.5800000e+00 5.9700000e+00 0.0000000e+00 
5.5533333e+00 6.0300000e+00 0.0000000e+00 
5.5800000e+00 5.9900000e+00 0.0000000e+00 
5.5800000e+00 6.0100000e+00 0.0000000e+00 
5.5800000e+00 6.0300000e+00 0.0000000e+00 
5.6066667e+00 5.9700000e+00 0.0000000e+00 
5.6066667e+00 5.9900000e+00 0.0000000e+00 
5.6066667e+00 6.0100000e+00 0.0000000e+00 
5.6066667e+00 6.0300000e+00 0.0000000e+00 
5.6333333e+00 5.9700000e+00 0.0000000e+00 
5.6333333e+00 5.9900000e+00 0.0000000e+00 
5.6333333e+00 6.0100000e+00 0.0000000e+00 
5.6333333e+00 6.0300000e+00 0.0000000e+00 
5.6600000e+00 5.9700000e+00 0.0000000e+00 
5.6600000e+00 5.9900000e+00 0.0000000e+00 
5.6600000e+00 6.0100000e+00 0.0000000e+00 
5.6600000e+00 6.0300000e+00 0.0000000e+00 
5.6866667e+00 5.9700000e+00 0.0000000e+00 
5.6866667e+00 5.9900000e+00 0.0000000e+00 
5.6866667e+00 6.0100000e+00 0.0000000e+00 
5.6866667e+00 6.0300000e+00 0.0000000e+00 
5.7133333e+00 5.9700000e+00 0.0000000e+00 
5.7133333e+00 5.9900000e+00 0.0000000e+00 
5.7133333e+00 6.0100000e+00 0.0000000e+00 
5.7133333e+00 6.0300000e+00 0.0000000e+00 
5.7400000e+00 5.9700000e+00 0.0000000e+00 
5.7400000e+00 5.9900000e+00 0.0000000e+00 
5.7400000e+00 6.0100000e+00 0.0000000e+00 
5.7400000e+00 6.0300000e+00 0.0000000e+00 
5.7666667e+00 5.9700000e+00 0.0000000e+00 
5.7666667e+00 5.9900000e+00 0.0000000e+00 
5.7666667e+00 6.0100000e+00 0.0000000e+00 
5.7666667e+00 6.0300000e+00 0.0000000e+00 
5.7933333e+00 5.9700000e+00 0.0000000e+00 
5.7933333e+00 5.9900000e+00 0.0000000e+00 
5.7933333e+00 6.0100000e+00 0.0000000e+00 
5.7933333e+00 6.0300000e+00 0.0000000e+00 
5.8200000e+00 5.9700000e+00 0.0000000e+00 
5.8200000e+00 5.9900000e+00 0.0000000e+00 
5.8200000e+00 6.0100000e+00 0.0000000e+00 
5.8200000e+00 6.0300000e+00 0.0000000e+00 
5.8466667e+00 5.9700000e+00 0.0000000e+00 
5.8466667e+00 5.9900000e+00 0.0000000e+00 
5.8466667e+00 6.0100000e+00 0.0000000e+00 
5.8466667e+00 6.0300000e+00 0.0000000e+00 
5.8733333e+00 5.9700000e+00 0.0000000e+00 
5.8733333e+00 5.9900000e+00 0.0000000e+00 
5.8733333e+00 6.0100000e+00 0.0000000e+00 
5.8733333e+00 6.0300000e+00 0.0000000e+00 
5.9000000e+00 5.9700000e+00 0.0000000e+00 
5.9000000e+00 5.9900000e+00 0.0000000e+00 
5.9000000e+00 6.0100000e+00 0.0000000e+00 
5.9000000e+00 6.0300000e+00 0.0000000e+00 
5.9266667e+00 5.9700000e+00 0.0000000e+00 
5.9266667e+00 5.9900000e+00 0.0000000e+00 
5.9266667e+00 6.0100000e+00 0.0000000e+00 
5.9266667e+00 6.0300000e+00 0.0000000e+00 
5.9533333e+00 5.9700000e+00 0.0000000e+00 
5.9533333e+00 5.9900000e+00 0.0000000e+00 
5.9533333e+00 6.0100000e+00 0.0000000e+00 
5.9533333e+00 6.0300000e+00 0.0000000e+00 
5.9800000e+00 5.9700000e+00 0.0000000e+00 
5.9800000e+00 5.9900000e+00 0.0000000e+00 
5.9800000e+00 6.0100000e+00 0.0000000e+00 
5.9800000e+00 6.0300000e+00 0.0000000e+00 
6.0066667e+00 5.9700000e+00 0.0000000e+00 
6.0066667e+00 5.9900000e+00 0.0000000e+00 
6.0066667e+00 6.0100000e+00 0.0000000e+00 
6.0066667e+00 6.0300000e+00 0.0000000e+00 
6.0333333e+00 5.9700000e+00 0.0000000e+00 
6.0333333e+00 5.9900000e+00 0.0000000e+00 
6.0333333e+00 6.0100000e+00 0.0000000e+00 
6.0333333e+00 6.0300000e+00 0.0000000e+00 
6.0600000e+00 5.9700000e+00 0.0000000e+00 
6.0600000e+00 5.9900000e+00 0.0000000e+00 
6.0600000e+00 6.0100000e+00 0.0000000e+00 
6.0600000e+00 6.0300000e+00 0.0000000e+00 
6.0866667e+00 5.9700000e+00 0.0000000e+00 
6.0866667e+00 5.9900000e+00 0.0000000e+00 
6.0866667e+00 6.0100000e+00 0.0000000e+00 
6.0866667e+00 6.0300000e+00 0.0000000e+00 
6.1133333e+00 5.9700000e+00 0.0000000e+00 
6.1133333e+00 5.9900000e+00 0.0000000e+00 
6.1133333e+00 6.0100000e+00 0.0000000e+00 
6.1133333e+00 6.0300000e+00 0.0000000e+00 
6.1400000e+00 5.9700000e+00 0.0000000e+00 
6.1400000e+00 5.9900000e+00 0.0000000e+00 
6.1400000e+00 6.0100000e+00 0.0000000e+00 
6.1400000e+00 6.0300000e+00 0.0000000e+00 
6.1666667e+00 5.9700000e+00 0.0000000e+00 
6.1666667e+00 5.9900000e+00 0.0000000e+00 
6.1666667e+00 6.0100000e+00 0.0000000e+00 
6.1666667e+00 6.0300000e+00 0.0000000e+00 
6.1933333e+00 5.9700000e+00 0.0000000e+00 
6.1933333e+00 5.9900000e+00 0.0000000e+00 
6.1933333e+00 6.0100000e+00 0.0000000e+00 
6.1933333e+00 6.0300000e+00 0.0000000e+00 
6.2200000e+00 5.9700000e+00 0.0000000e+00 
6.2200000e+00 5.9900000e+00 0.0000000e+00 
6.2200000e+00 6.0100000e+00 0.0000000e+00 
6.2200000e+00 6.0300000e+00 0.0000000e+00 
6.2466667e+00 5.9700000e+00 0.0000000e+00 
6.2466667e+00 5.9900000e+00 0.0000000e+00 
6.2466667e+00 6.0100000e+00 0.0000000e+00 
6.2466667e+00 6.0300000e+00 0.0000000e+00 
6.2733333e+00 5.9700000e+00 0.0000000e+00 
6.2733333e+00 5.9900000e+00 0.0000000e+00 
6.2733333e+00 6.0100000e+00 0.0000000e+00 
6.2733333e+00 6.0300000e+00 0.0000000e+00 
6.3000000e+00 5.9700000e+00 0.0000000e+00 
6.3000000e+00 5.9900000e+00 0.0000000e+00 
6.3000000e+00 6.0100000e+00 0.0000000e+00 
6.3000000e+00 6.0300000e+00 0.0000000e+00 
6.3266667e+00 5.9700000e+00 0.0000000e+00 
6.3266667e+00 5.9900000e+00 0.0000000e+00 
6.3266667e+00 6.0100000e+00 0.0000000e+00 
6.3266667e+00 6.0300000e+00 0.0000000e+00 
6.3533333e+00 5.9700000e+00 0.0000000e+00 
6.3533333e+00 5.9900000e+00 0.0000000e+00 
6.3533333e+00 6.0100000e+00 0.0000000e+00 
6.3533333e+00 6.0300000e+00 0.0000000e+00 
6.3800000e+00 5.9700000e+00 0.0000000e+00 
6.3800000e+00 5.9900000e+00 0.0000000e+00 
6.3800000e+00 6.0100000e+00 0.0000000e+00 
6.3800000e+00 6.0300000e+00 0.0000000e+00 
6.4066667e+00 5.9700000e+00 0.0000000e+00 
6.4066667e+00 5.9900000e+00 0.0000000e+00 
6.4066667e+00 6.0100000e+00 0.0000000e+00 
6.4066667e+00 6.0300000e+00 0.0000000e+00 
6.4333333e+00 5.9700000e+00 0.0000000e+00 
6.4333333e+00 5.9900000e+00 0.0000000e+00 
6.4333333e+00 6.0100000e+00 0.0000000e+00 
6.4333333e+00 6.0300000e+00 0.0000000e+00 
6.4600000e+00 5.9700000e+00 0.0000000e+00 
6.4600000e+00 5.9900000e+00 0.0000000e+00 
6.4600000e+00 6.0100000e+00 0.0000000e+00 
6.4600000e+00 6.0300000e+00 0.0000000e+00 
6.4866667e+00 5.9700000e+00 0.0000000e+00 
6.4866667e+00 5.9900000e+00 0.0000000e+00 
6.4866667e+00 6.0100000e+00 0.0000000e+00 
6.4866667e+00 6.0300000e+00 0.0000000e+00 
6.5133333e+00 5.9700000e+00 0.0000000e+00 
6.5133333e+00 5.9900000e+00 0.0000000e+00 
6.5133333e+00 6.0100000e+00 0.0000000e+00 
6.5133333e+00 6.0300000e+00 0.0000000e+00 
6.5400000e+00 5.9700000e+00 0.0000000e+00 
6.5400000e+00 5.9900000e+00 0.0000000e+00 
6.5400000e+00 6.0100000e+00 0.0000000e+00 
6.5400000e+00 6.0300000e+00 0.0000000e+00 
6.5666667e+00 5.9700000e+00 0.0000000e+00 
6.5666667e+00 5.9900000e+00 0.0000000e+00 
6.5666667e+00 6.0100000e+00 0.0000000e+00 
6.5666667e+00 6.0300000e+00 0.0000000e+00 
6.5933333e+00 5.9700000e+00 0.0000000e+00 
6.5933333e+00 5.9900000e+00 0.0000000e+00 
6.5933333e+00 6.0100000e+00 0.0000000e+00 
6.5933333e+00 6.0300000e+00 0.0000000e+00 
6.6200000e+00 5.9700000e+00 0.0000000e+00 
6.6200000e+00 5.9900000e+00 0.0000000e+00 
6.6200000e+00 6.0100000e+00 0.0000000e+00 
6.6200000e+00 6.0300000e+00 0.0000000e+00 
6.6466667e+00 5.9700000e+00 0.0000000e+00 
6.6466667e+00 5.9900000e+00 0.0000000e+00 
6.6466667e+00 6.0100000e+00 0.0000000e+00 
6.6466667e+00 6.0300000e+00 0.0000000e+00 
6.6733333e+00 5.9700000e+00 0.0000000e+00 
6.6733333e+00 5.9900000e+00 0.0000000e+00 
6.6733333e+00 6.0100000e+00 0.0000000e+00 
6.6733333e+00 6.0300000e+00 0.0000000e+00 
6.7000000e+00 5.9700000e+00 0.0000000e+00 
6.7000000e+00 5.9900000e+00 0.0000000e+00 
6.7000000e+00 6.0100000e+00 0.0000000e+00 
6.7000000e+00 6.0300000e+00 0.0000000e+00 
6.7266667e+00 5.9700000e+00 0.0000000e+00 
6.7266667e+00 5.9900000e+00 0.0000000e+00 
6.7266667e+00 6.0100000e+00 0.0000000e+00 
6.7266667e+00 6.0300000e+00 0.0000000e+00 
6.7533333e+00 5.9700000e+00 0.0000000e+00 
6.7533333e+00 5.9900000e+00 0.0000000e+00 
6.7533333e+00 6.0100000e+00 0.0000000e+00 
6.7533333e+00 6.0300000e+00 0.0000000e+00 
6.7800000e+00 5.9700000e+00 0.0000000e+00 
6.7800000e+00 5.9900000e+00 0.0000000e+00 
6.7800000e+00 6.0100000e+00 0.0000000e+00 
6.7800000e+00 6.0300000e+00 0.0000000e+00 
6.8066667e+00 5.9700000e+00 0.0000000e+00 
6.8066667e+00 5.9900000e+00 0.0000000e+00 
6.8066667e+00 6.0100000e+00 0.0000000e+00 
6.8066667e+00 6.0300000e+00 0.0000000e+00 
6.8333333e+00 5.9700000e+00 0.0000000e+00 
6.8333333e+00 5.9900000e+00 0.0000000e+00 
6.8333333e+00 6.0100000e+00 0.0000000e+00 
6.8333333e+00 6.0300000e+00 0.0000000e+00 
6.8600000e+00 5.9700000e+00 0.0000000e+00 
6.8600000e+00 5.9900000e+00 0.0000000e+00 
6.8600000e+00 6.0100000e+00 0.0000000e+00 
6.8600000e+00 6.0300000e+00 0.0000000e+00 
6.8866667e+00 5.9700000e+00 0.0000000e+00 
6.8866667e+00 5.9900000e+00 0.0000000e+00 
6.8866667e+00 6.0100000e+00 0.0000000e+00 
6.8866667e+00 6.0300000e+00 0.0000000e+00 
6.9133333e+00 5.9700000e+00 0.0000000e+00 
6.9133333e+00 5.9900000e+00 0.0000000e+00 
6.9133333e+00 6.0100000e+00 0.0000000e+00 
6.9133333e+00 6.0300000e+00 0.0000000e+00 
6.9400000e+00 5.9700000e+00 0.0000000e+00 
6.9400000e+00 5.9900000e+00 0.0000000e+00 
6.9400000e+00 6.0100000e+00 0.0000000e+00 
6.9400000e+00 6.0300000e+00 0.0000000e+00 
6.9666667e+00 5.9700000e+00 0.0000000e+00 
6.9666667e+00 5.9900000e+00 0.0000000e+00 
6.9666667e+00 6.0100000e+00 0.0000000e+00 
6.9666667e+00 6.0300000e+00 0.0000000e+00 
6.9933333e+00 5.9700000e+00 0.0000000e+00 
6.9933333e+00 5.9900000e+00 0.0000000e+00 
6.9933333e+00 6.0100000e+00 0.0000000e+00 
6.9933333e+00 6.0300000e+00 0.0000000e+00 
7.0200000e+00 5.9700000e+00 0.0000000e+00 
7.0200000e+00 5.9900000e+00 0.0000000e+00 
[...]
POINT_DATA 604
FIELD FieldData 2
DISPLACEMENT 3 604  float
0.0000000e+00 0.0000000e+00 0.0000000e+00 
0.0000000e+00 0.0000000e+00 0.0000000e+00 
2.6048178e-04 1.6015196e-04 0.0000000e+00 
8.1823089e-05 1.0414630e-04 0.0000000e+00 
0.0000000e+00 0.0000000e+00 0.0000000e+00 
-8.4650360e-05 1.0303137e-04 0.0000000e+00 
5.2247399e-04 5.1386778e-04 0.0000000e+00 
1.7105879e-04 4.6527808e-04 0.0000000e+00 
0.0000000e+00 0.0000000e+00 0.0000000e+00 
-2.6392846e-04 1.5706048e-04 0.0000000e+00 
-1.8072508e-04 4.6169369e-04 0.0000000e+00 
7.7613706e-04 1.1107570e-03 0.0000000e+00 
-5.3372691e-04 5.0361097e-04 0.0000000e+00 
2.5012653e-04 1.0581104e-03 0.0000000e+00 
-2.7478960e-04 1.0507367e-03 0.0000000e+00 
-8.0328302e-04 1.0889291e-03 0.0000000e+00 
1.0187648e-03 1.9391693e-03 0.0000000e+00 
3.2214237e-04 1.8822916e-03 0.0000000e+00 
-3.7398173e-04 1.8697499e-03 0.0000000e+00 
-1.0737862e-03 1.9018706e-03 0.0000000e+00 
1.2487057e-03 2.9956238e-03 0.0000000e+00 
3.8459712e-04 2.9329744e-03 0.0000000e+00 
-4.7934831e-04 2.9138557e-03 0.0000000e+00 
-1.3473163e-03 2.9384551e-03 0.0000000e+00 
1.4642594e-03 4.2754044e-03 0.0000000e+00 
4.3586768e-04 4.2058363e-03 0.0000000e+00 
-5.9270129e-04 4.1789867e-03 0.0000000e+00 
-1.6256076e-03 4.1950491e-03 0.0000000e+00 
1.6638659e-03 5.7742894e-03 0.0000000e+00 
4.7432842e-04 5.6965748e-03 0.0000000e+00 
-7.1570119e-04 5.6607684e-03 0.0000000e+00 
-1.9102754e-03 5.6670271e-03 0.0000000e+00 
1.8460540e-03 7.4879570e-03 0.0000000e+00 
4.9853002e-04 7.4009387e-03 0.0000000e+00 
-8.4978831e-04 7.3550279e-03 0.0000000e+00 
-2.2029354e-03 7.3502733e-03 0.0000000e+00 
2.0094812e-03 9.4119647e-03 0.0000000e+00 
5.0705128e-04 9.3147137e-03 0.0000000e+00 
-9.9645456e-04 9.2577630e-03 0.0000000e+00 
-2.5050315e-03 9.2412216e-03 0.0000000e+00 
2.1528349e-03 1.1542316e-02 0.0000000e+00 
4.9857952e-04 1.1433761e-02 0.0000000e+00 
-1.1570155e-03 1.1364739e-02 0.0000000e+00 
-2.8179027e-03 1.1335200e-02 0.0000000e+00 
2.2749457e-03 1.3874563e-02 0.0000000e+00 
4.7189930e-04 1.3753919e-02 0.0000000e+00 
-1.3327275e-03 1.3672004e-02 0.0000000e+00 
-3.1428507e-03 1.3628850e-02 0.0000000e+00 
2.3746808e-03 1.6404791e-02 0.0000000e+00 
4.2587983e-04 1.6271109e-02 0.0000000e+00 
-1.5247326e-03 1.6175404e-02 0.0000000e+00 
-3.4810283e-03 1.6117547e-02 0.0000000e+00 
2.4510533e-03 1.9128617e-02 0.0000000e+00 
3.5947684e-04 1.8981244e-02 0.0000000e+00 
-1.7341199e-03 1.8871056e-02 0.0000000e+00 
-3.8335718e-03 1.8798012e-02 0.0000000e+00 
2.5030949e-03 2.2042219e-02 0.0000000e+00 
2.7172553e-04 2.1880324e-02 0.0000000e+00 
-1.9618640e-03 2.1754876e-02 0.0000000e+00 
-4.2014631e-03 2.1665675e-02 0.0000000e+00 
2.5299848e-03 2.5141285e-02 0.0000000e+00 
1.6174373e-04 2.4964337e-02 0.0000000e+00 
-2.2088967e-03 2.4823057e-02 0.0000000e+00 
-4.5856884e-03 2.4717337e-02 0.0000000e+00 
2.5309083e-03 2.8422089e-02 0.0000000e+00 
2.8720849e-05 2.8229367e-02 0.0000000e+00 
-2.4760364e-03 2.8071589e-02 0.0000000e+00 
-4.9870692e-03 2.7948490e-02 0.0000000e+00 
2.5051983e-03 3.1880394e-02 0.0000000e+00 
-1.2807449e-04 3.1671479e-02 0.0000000e+00 
-2.7640689e-03 3.1496743e-02 0.0000000e+00 
-5.4064529e-03 3.1356018e-02 0.0000000e+00 
2.4521831e-03 3.5512573e-02 0.0000000e+00 
-3.0931015e-04 3.5286845e-02 0.0000000e+00 
-3.0736678e-03 3.5094589e-02 0.0000000e+00 
-5.8445107e-03 3.4935480e-02 0.0000000e+00 
2.3713373e-03 3.9314469e-02 0.0000000e+00 
-5.1557757e-04 3.9071613e-02 0.0000000e+00 
-3.4054830e-03 3.8861479e-02 0.0000000e+00 
-6.3019619e-03 3.8683843e-02 0.0000000e+00 
2.2621177e-03 4.3282550e-02 0.0000000e+00 
-7.4741050e-04 4.3022045e-02 0.0000000e+00 
-3.7600520e-03 4.2793562e-02 0.0000000e+00 
-6.7793424e-03 4.2596738e-02 0.0000000e+00 
2.1241282e-03 4.7412739e-02 0.0000000e+00 
-1.0052711e-03 4.7134361e-02 0.0000000e+00 
-4.1378993e-03 4.6887295e-02 0.0000000e+00 
-7.2772563e-03 4.6671219e-02 0.0000000e+00 
1.9569956e-03 5.1701528e-02 0.0000000e+00 
-1.2895939e-03 5.1404898e-02 0.0000000e+00 
-4.5395005e-03 5.1138883e-02 0.0000000e+00 
-7.7961130e-03 5.0903153e-02 0.0000000e+00 
1.7604015e-03 5.6145267e-02 0.0000000e+00 
-1.6006744e-03 5.5830055e-02 0.0000000e+00 
-4.9651528e-03 5.5544776e-02 0.0000000e+00 
-8.3364074e-03 5.5289002e-02 0.0000000e+00 
1.5341251e-03 6.0740145e-02 0.0000000e+00 
-1.9388346e-03 6.0406252e-02 0.0000000e+00 
-5.4152780e-03 6.0101593e-02 0.0000000e+00 
-8.8985354e-03 5.9825835e-02 0.0000000e+00 
1.2779017e-03 6.5482921e-02 0.0000000e+00 
-2.3043374e-03 6.5130023e-02 0.0000000e+00 
-5.8901230e-03 6.4805718e-02 0.0000000e+00 
-9.4827370e-03 6.4509522e-02 0.0000000e+00 
9.9160523e-04 7.0369790e-02 0.0000000e+00 
-2.6973712e-03 6.9997867e-02 0.0000000e+00 
-6.3899486e-03 6.9653848e-02 0.0000000e+00 
-1.0089371e-02 6.9337364e-02 0.0000000e+00 
6.7507215e-04 7.5397598e-02 0.0000000e+00 
-3.1180971e-03 7.5006397e-02 0.0000000e+00 
-6.9149126e-03 7.4642476e-02 0.0000000e+00 
-1.0718569e-02 7.4305316e-02 0.0000000e+00 
3.2827568e-04 8.0562638e-02 0.0000000e+00 
-3.5666132e-03 8.0152207e-02 0.0000000e+00 
-7.4651855e-03 7.9768383e-02 0.0000000e+00 
-1.1370600e-02 7.9410766e-02 0.0000000e+00 
-4.8860707e-05 8.5861849e-02 0.0000000e+00 
-4.0429921e-03 8.5432001e-02 0.0000000e+00 
-8.0408355e-03 8.5028154e-02 0.0000000e+00 
-1.2045499e-02 8.4649757e-02 0.0000000e+00 
-4.5627753e-04 9.1291626e-02 0.0000000e+00 
-4.5472468e-03 9.0842469e-02 0.0000000e+00 
-8.6419496e-03 9.0418657e-02 0.0000000e+00 
-1.2743458e-02 9.0019760e-02 0.0000000e+00 
-8.9397218e-04 9.6848999e-02 0.0000000e+00 
-5.0793700e-03 9.6380407e-02 0.0000000e+00 
-9.2685147e-03 9.5936570e-02 0.0000000e+00 
-1.3464427e-02 9.5516913e-02 0.0000000e+00 
-1.3618070e-03 1.0253046e-01 0.0000000e+00 
-5.6392977e-03 1.0204260e-01 0.0000000e+00 
-9.9205424e-03 1.0157885e-01 0.0000000e+00 
-1.4208527e-02 1.0113876e-01 0.0000000e+00 
-1.8597082e-03 1.0833314e-01 0.0000000e+00 
-6.2269503e-03 1.0782593e-01 0.0000000e+00 
-1.0597946e-02 1.0734227e-01 0.0000000e+00 
-1.4975630e-02 1.0688155e-01 0.0000000e+00 
-2.3874678e-03 1.1425364e-01 0.0000000e+00 
-6.8421948e-03 1.1372729e-01 0.0000000e+00 
-1.1300669e-02 1.1322387e-01 0.0000000e+00 
-1.5765792e-02 1.1274290e-01 0.0000000e+00 
-2.9449516e-03 1.2028915e-01 0.0000000e+00 
-7.4848847e-03 1.1974365e-01 0.0000000e+00 
-1.2028557e-02 1.1922052e-01 0.0000000e+00 
-1.6578818e-02 1.1871914e-01 0.0000000e+00 
-3.5318897e-03 1.2643639e-01 0.0000000e+00 
-8.1548240e-03 1.2587198e-01 0.0000000e+00 
-1.2781493e-02 1.2532936e-01 0.0000000e+00 
-1.7414711e-02 1.2480798e-01 0.0000000e+00 
-4.1480398e-03 1.3269257e-01 0.0000000e+00 
-8.8518259e-03 1.3210934e-01 0.0000000e+00 
-1.3559321e-02 1.3154732e-01 0.0000000e+00 
-1.8273232e-02 1.3100600e-01 0.0000000e+00 
-4.7931309e-03 1.3905482e-01 0.0000000e+00 
-9.5756048e-03 1.3845286e-01 0.0000000e+00 
-1.4361761e-02 1.3787158e-01 0.0000000e+00 
-1.9154289e-02 1.3731035e-01 0.0000000e+00 
-5.4668243e-03 1.4552011e-01 0.0000000e+00 
-1.0325923e-02 1.4489972e-01 0.0000000e+00 
-1.5188680e-02 1.4429944e-01 0.0000000e+00 
-2.0057749e-02 1.4371876e-01 0.0000000e+00 
-6.1688680e-03 1.5208590e-01 0.0000000e+00 
-1.1102519e-02 1.5144715e-01 0.0000000e+00 
-1.6039792e-02 1.5082801e-01 0.0000000e+00 
-2.0983289e-02 1.5022783e-01 0.0000000e+00 
-6.8988767e-03 1.5874919e-01 0.0000000e+00 
-1.1905079e-02 1.5809242e-01 0.0000000e+00 
-1.6914863e-02 1.5745470e-01 0.0000000e+00 
-2.1930801e-02 1.5683551e-01 0.0000000e+00 
-7.6565542e-03 1.6550753e-01 0.0000000e+00 
-1.2733293e-02 1.6483284e-01 0.0000000e+00 
-1.7813574e-02 1.6417672e-01 0.0000000e+00 
-2.2899911e-02 1.6353850e-01 0.0000000e+00 
-8.4414706e-03 1.7235802e-01 0.0000000e+00 
-1.3586815e-02 1.7166577e-01 0.0000000e+00 
-1.8735652e-02 1.7099154e-01 0.0000000e+00 
-2.3890471e-02 1.7033482e-01 0.0000000e+00 
-9.2532966e-03 1.7929828e-01 0.0000000e+00 
-1.4465298e-02 1.7858861e-01 0.0000000e+00 
-1.9680744e-02 1.7789649e-01 0.0000000e+00 
-2.4902068e-02 1.7722127e-01 0.0000000e+00 
-1.0091568e-02 1.8632553e-01 0.0000000e+00 
-1.5368360e-02 1.8559880e-01 0.0000000e+00 
-2.0648543e-02 1.8488912e-01 0.0000000e+00 
-2.5934522e-02 1.8419593e-01 0.0000000e+00 
-1.0955926e-02 1.9343746e-01 0.0000000e+00 
-1.6295625e-02 1.9269386e-01 0.0000000e+00 
-2.1638662e-02 1.9196682e-01 0.0000000e+00 
-2.6987386e-02 1.9125571e-01 0.0000000e+00 
-1.1845876e-02 2.0063138e-01 0.0000000e+00 
-1.7246685e-02 1.9987128e-01 0.0000000e+00 
-2.2650768e-02 1.9912726e-01 0.0000000e+00 
-2.8060454e-02 1.9839878e-01 0.0000000e+00 
-1.2761038e-02 2.0790509e-01 0.0000000e+00 
-1.8221134e-02 2.0712869e-01 0.0000000e+00 
-2.3684447e-02 2.0636791e-01 0.0000000e+00 
-2.9153250e-02 2.0562212e-01 0.0000000e+00 
-1.3700891e-02 2.1525598e-01 0.0000000e+00 
-1.9218541e-02 2.1446367e-01 0.0000000e+00 
-2.4739343e-02 2.1368651e-01 0.0000000e+00 
-3.0265543e-02 2.1292397e-01 0.0000000e+00 
-1.4665038e-02 2.2268192e-01 0.0000000e+00 
-2.0238480e-02 2.2187392e-01 0.0000000e+00 
-2.5815016e-02 2.2108064e-01 0.0000000e+00 
-3.1396838e-02 2.2030143e-01 0.0000000e+00 
-1.5652938e-02 2.3018039e-01 0.0000000e+00 
-2.1280497e-02 2.2935712e-01 0.0000000e+00 
-2.6911093e-02 2.2854811e-01 0.0000000e+00 
-3.2546887e-02 2.2775280e-01 0.0000000e+00 
-1.6664128e-02 2.3774932e-01 0.0000000e+00 
-2.2344163e-02 2.3691102e-01 0.0000000e+00 
-2.8027166e-02 2.3608656e-01 0.0000000e+00 
-3.3715202e-02 2.3527539e-01 0.0000000e+00 
-1.7698121e-02 2.4538652e-01 0.0000000e+00 
-2.3428983e-02 2.4453348e-01 0.0000000e+00 
-2.9162747e-02 2.4369385e-01 0.0000000e+00 
-3.4901460e-02 2.4286703e-01 0.0000000e+00 
-1.8754374e-02 2.5308971e-01 0.0000000e+00 
-2.4534519e-02 2.5222234e-01 0.0000000e+00 
-3.0317498e-02 2.5136796e-01 0.0000000e+00 
-3.6105334e-02 2.5052605e-01 0.0000000e+00 
-1.9832474e-02 2.6085701e-01 0.0000000e+00 
-2.5660324e-02 2.5997554e-01 0.0000000e+00 
-3.1490945e-02 2.5910668e-01 0.0000000e+00 
-3.7326300e-02 2.5824980e-01 0.0000000e+00 
-2.0931856e-02 2.6868617e-01 0.0000000e+00 
-2.6805925e-02 2.6779103e-01 0.0000000e+00 
-3.2682688e-02 2.6690808e-01 0.0000000e+00 
-3.8564091e-02 2.6603681e-01 0.0000000e+00 
-2.2052098e-02 2.7657539e-01 0.0000000e+00 
-2.7970862e-02 2.7566681e-01 0.0000000e+00 
-3.3892255e-02 2.7477005e-01 0.0000000e+00 
-3.9818166e-02 2.7388450e-01 0.0000000e+00 
-2.3192624e-02 2.8452247e-01 0.0000000e+00 
-2.9154658e-02 2.8360089e-01 0.0000000e+00 
-3.5119242e-02 2.8269072e-01 0.0000000e+00 
-4.1088249e-02 2.8179147e-01 0.0000000e+00 
-2.4353011e-02 2.9252570e-01 0.0000000e+00 
-3.0356848e-02 2.9159136e-01 0.0000000e+00 
-3.6363171e-02 2.9066807e-01 0.0000000e+00 
-4.2373792e-02 2.8975525e-01 0.0000000e+00 
-2.5532678e-02 3.0058299e-01 0.0000000e+00 
-3.1576952e-02 2.9963631e-01 0.0000000e+00 
-3.7623632e-02 2.9870031e-01 0.0000000e+00 
-4.3674517e-02 2.9777449e-01 0.0000000e+00 
-2.6731201e-02 3.0869269e-01 0.0000000e+00 
-3.2814503e-02 3.0773392e-01 0.0000000e+00 
-3.8900146e-02 3.0678548e-01 0.0000000e+00 
-4.4989869e-02 3.0584680e-01 0.0000000e+00 
-2.7947997e-02 3.1685279e-01 0.0000000e+00 
-3.4069020e-02 3.1588235e-01 0.0000000e+00 
-4.0192302e-02 3.1492189e-01 0.0000000e+00 
-4.6319571e-02 3.1397091e-01 0.0000000e+00 
-2.9182646e-02 3.2506170e-01 0.0000000e+00 
-3.5340035e-02 3.2407986e-01 0.0000000e+00 
-4.1499620e-02 3.2310765e-01 0.0000000e+00 
-4.7663068e-02 3.2214450e-01 0.0000000e+00 
-3.0434566e-02 3.3331751e-01 0.0000000e+00 
-3.6627072e-02 3.3232467e-01 0.0000000e+00 
-4.2821691e-02 3.3134112e-01 0.0000000e+00 
-4.9020081e-02 3.3036638e-01 0.0000000e+00 
-3.1703344e-02 3.4161870e-01 0.0000000e+00 
-3.7929663e-02 3.4061513e-01 0.0000000e+00 
-4.4158035e-02 3.3962051e-01 0.0000000e+00 
-5.0390061e-02 3.3863431e-01 0.0000000e+00 
-3.2988400e-02 3.4996343e-01 0.0000000e+00 
-3.9247332e-02 3.4894953e-01 0.0000000e+00 
-4.5508251e-02 3.4794427e-01 0.0000000e+00 
-5.1772734e-02 3.4694716e-01 0.0000000e+00 
-3.4289276e-02 3.5835022e-01 0.0000000e+00 
-4.0579634e-02 3.5732626e-01 0.0000000e+00 
-4.6871907e-02 3.5631064e-01 0.0000000e+00 
-5.3167585e-02 3.5530289e-01 0.0000000e+00 
-3.5605485e-02 3.6677751e-01 0.0000000e+00 
-4.1926073e-02 3.6574379e-01 0.0000000e+00 
-4.8248512e-02 3.6471810e-01 0.0000000e+00 
-5.4574272e-02 3.6369991e-01 0.0000000e+00 
-3.6936485e-02 3.7524366e-01 0.0000000e+00 
-4.3286217e-02 3.7420058e-01 0.0000000e+00 
-4.9637728e-02 3.7316521e-01 0.0000000e+00 
-5.5992475e-02 3.7213714e-01 0.0000000e+00 
-3.8281897e-02 3.8374739e-01 0.0000000e+00 
-4.4659632e-02 3.8269517e-01 0.0000000e+00 
-5.1039090e-02 3.8165039e-01 0.0000000e+00 
-5.7421666e-02 3.8061254e-01 0.0000000e+00 
-3.9641168e-02 3.9228704e-01 0.0000000e+00 
-4.6045871e-02 3.9122608e-01 0.0000000e+00 
-5.2452219e-02 3.9017227e-01 0.0000000e+00 
-5.8861602e-02 3.8912519e-01 0.0000000e+00 
-4.1013929e-02 4.0086141e-01 0.0000000e+00 
-4.7444505e-02 3.9979194e-01 0.0000000e+00 
-5.3876672e-02 3.9872934e-01 0.0000000e+00 
-6.0311757e-02 3.9767313e-01 0.0000000e+00 
-4.2399631e-02 4.0946892e-01 0.0000000e+00 
-4.8855098e-02 4.0839132e-01 0.0000000e+00 
-5.5312078e-02 4.0732031e-01 0.0000000e+00 
-6.1771897e-02 4.0625550e-01 0.0000000e+00 
-4.3797920e-02 4.1810842e-01 0.0000000e+00 
-5.0277232e-02 4.1702290e-01 0.0000000e+00 
-5.6758005e-02 4.1594373e-01 0.0000000e+00 
-6.3241504e-02 4.1487043e-01 0.0000000e+00 
-4.5208257e-02 4.2677841e-01 0.0000000e+00 
-5.1710483e-02 4.2568536e-01 0.0000000e+00 
-5.8214096e-02 4.2459838e-01 0.0000000e+00 
-6.4720357e-02 4.2351710e-01 0.0000000e+00 
-4.6630301e-02 4.3547780e-01 0.0000000e+00 
-5.3154445e-02 4.3437742e-01 0.0000000e+00 
-5.9679928e-02 4.3328288e-01 0.0000000e+00 
-6.6207947e-02 4.3219372e-01 0.0000000e+00 
-4.8063527e-02 4.4420517e-01 0.0000000e+00 
-5.4608709e-02 4.4309783e-01 0.0000000e+00 
-6.1155155e-02 4.4199607e-01 0.0000000e+00 
-6.7704066e-02 4.4089953e-01 0.0000000e+00 
-4.9507607e-02 4.5295948e-01 0.0000000e+00 
-5.6072879e-02 4.5184538e-01 0.0000000e+00 
-6.2639372e-02 4.5073664e-01 0.0000000e+00 
-6.9208217e-02 4.4963282e-01 0.0000000e+00 
-5.0962030e-02 4.6173939e-01 0.0000000e+00 
-5.7546562e-02 4.6061889e-01 0.0000000e+00 
-6.4132242e-02 4.5950349e-01 0.0000000e+00 
-7.0720206e-02 4.5839287e-01 0.0000000e+00 
-5.2426485e-02 4.7054393e-01 0.0000000e+00 
-5.9029375e-02 4.6941721e-01 0.0000000e+00 
-6.5633374e-02 4.6829539e-01 0.0000000e+00 
-7.2239553e-02 4.6717805e-01 0.0000000e+00 
-5.3900479e-02 4.7937181e-01 0.0000000e+00 
-6.0520937e-02 4.7823921e-01 0.0000000e+00 
-6.7142449e-02 4.7711130e-01 0.0000000e+00 
-7.3766077e-02 4.7598771e-01 0.0000000e+00 
-5.5383662e-02 4.8822208e-01 0.0000000e+00 
-6.2020897e-02 4.8708382e-01 0.0000000e+00 
-6.8659131e-02 4.8595003e-01 0.0000000e+00 
-7.5299348e-02 4.8482039e-01 0.0000000e+00 
-5.6875654e-02 4.9709374e-01 0.0000000e+00 
-6.3528863e-02 4.9595002e-01 0.0000000e+00 
-7.0183030e-02 4.9481058e-01 0.0000000e+00 
-7.6839114e-02 4.9367503e-01 0.0000000e+00 
-5.8376015e-02 5.0598566e-01 0.0000000e+00 
-6.5044510e-02 5.0483681e-01 0.0000000e+00 
-7.1713905e-02 5.0369202e-01 0.0000000e+00 
-7.8385158e-02 5.0255101e-01 0.0000000e+00 
-5.9884489e-02 5.1489708e-01 0.0000000e+00 
-6.6567511e-02 5.1374325e-01 0.0000000e+00 
-7.3251401e-02 5.1259330e-01 0.0000000e+00 
-7.9937051e-02 5.1144688e-01 0.0000000e+00 
-6.1400631e-02 5.2382690e-01 0.0000000e+00 
-6.8097534e-02 5.2266838e-01 0.0000000e+00 
-7.4795245e-02 5.2151356e-01 0.0000000e+00 
-8.1494662e-02 5.2036215e-01 0.0000000e+00 
-6.2924198e-02 5.3277439e-01 0.0000000e+00 
-6.9634265e-02 5.3161133e-01 0.0000000e+00 
-7.6345112e-02 5.3045181e-01 0.0000000e+00 
-8.3057569e-02 5.2929546e-01 0.0000000e+00 
-6.4454760e-02 5.4173850e-01 0.0000000e+00 
-7.1177392e-02 5.4057120e-01 0.0000000e+00 
-7.7900745e-02 5.3940724e-01 0.0000000e+00 
-8.4625658e-02 5.3824638e-01 0.0000000e+00 
-6.5992095e-02 5.5071858e-01 0.0000000e+00 
-7.2726617e-02 5.4954717e-01 0.0000000e+00 
-7.9461836e-02 5.4837895e-01 0.0000000e+00 
-8.6198524e-02 5.4721359e-01 0.0000000e+00 
-6.7535788e-02 5.5971365e-01 0.0000000e+00 
-7.4281646e-02 5.5853840e-01 0.0000000e+00 
-8.1028144e-02 5.5736617e-01 0.0000000e+00 
-8.7776067e-02 5.5619672e-01 0.0000000e+00 
-6.9085635e-02 5.6872311e-01 0.0000000e+00 
-7.5842199e-02 5.6754414e-01 0.0000000e+00 
-8.2599382e-02 5.6636805e-01 0.0000000e+00 
-8.9357900e-02 5.6519453e-01 0.0000000e+00 
-7.0641241e-02 5.7774602e-01 0.0000000e+00 
-7.7407999e-02 5.7656360e-01 0.0000000e+00 
-8.4175323e-02 5.7538389e-01 0.0000000e+00 
-9.0943941e-02 5.7420669e-01 0.0000000e+00 
-7.2202420e-02 5.8678185e-01 0.0000000e+00 
-7.8978784e-02 5.8559608e-01 0.0000000e+00 
-8.5755697e-02 5.8441290e-01 0.0000000e+00 
-9.2533819e-02 5.8323202e-01 0.0000000e+00 
-7.3768794e-02 5.9582972e-01 0.0000000e+00 
-8.0554296e-02 5.9464086e-01 0.0000000e+00 
-8.7340297e-02 5.9345443e-01 0.0000000e+00 
-9.4127469e-02 5.9227023e-01 0.0000000e+00 
-7.5340199e-02 6.0488916e-01 0.0000000e+00 
-8.2134290e-02 6.0369729e-01 0.0000000e+00 
-8.8928868e-02 6.0250774e-01 0.0000000e+00 
-9.5724540e-02 6.0132024e-01 0.0000000e+00 
-7.6916277e-02 6.1395934e-01 0.0000000e+00 
-8.3718523e-02 6.1276470e-01 0.0000000e+00 
-9.0521224e-02 6.1157225e-01 0.0000000e+00 
-9.7324984e-02 6.1038178e-01 0.0000000e+00 
-7.8496830e-02 6.2303980e-01 0.0000000e+00 
-8.5306784e-02 6.2184250e-01 0.0000000e+00 
-9.2117161e-02 6.2064727e-01 0.0000000e+00 
-9.8928502e-02 6.1945393e-01 0.0000000e+00 
-8.0081625e-02 6.3212996e-01 0.0000000e+00 
-8.6898825e-02 6.3093012e-01 0.0000000e+00 
-9.3716436e-02 6.2973223e-01 0.0000000e+00 
-1.0053497e-01 6.2853608e-01 0.0000000e+00 
-8.1670360e-02 6.4122919e-01 0.0000000e+00 
-8.8494459e-02 6.4002701e-01 0.0000000e+00 
-9.5318930e-02 6.3882666e-01 0.0000000e+00 
-1.0214430e-01 6.3762800e-01 0.0000000e+00 
-8.3262932e-02 6.5033714e-01 0.0000000e+00 
-9.0093499e-02 6.4913268e-01 0.0000000e+00 
-9.6924434e-02 6.4792996e-01 0.0000000e+00 
-1.0375619e-01 6.4672878e-01 0.0000000e+00 
-8.4859031e-02 6.5945316e-01 0.0000000e+00 
-9.1695753e-02 6.5824661e-01 0.0000000e+00 
-9.8532803e-02 6.5704170e-01 0.0000000e+00 
-1.0537066e-01 6.5583829e-01 0.0000000e+00 
-8.6458569e-02 6.6857696e-01 0.0000000e+00 
-9.3301048e-02 6.6736837e-01 0.0000000e+00 
-1.0014385e-01 6.6616133e-01 0.0000000e+00 
-1.0698740e-01 6.6495567e-01 0.0000000e+00 
-8.8061252e-02 6.7770792e-01 0.0000000e+00 
-9.4909212e-02 6.7649748e-01 0.0000000e+00 
-1.0175746e-01 6.7528849e-01 0.0000000e+00 
-1.0860643e-01 6.7408084e-01 0.0000000e+00 
-8.9667010e-02 6.8684582e-01 0.0000000e+00 
-9.6520087e-02 6.8563354e-01 0.0000000e+00 
-1.0337346e-01 6.8442266e-01 0.0000000e+00 
-1.1022748e-01 6.8321299e-01 0.0000000e+00 
-9.1275565e-02 6.9599006e-01 0.0000000e+00 
-9.8133518e-02 6.9477615e-01 0.0000000e+00 
-1.0499173e-01 6.9356352e-01 0.0000000e+00 
-1.1185057e-01 6.9235210e-01 0.0000000e+00 
-9.2886865e-02 7.0514047e-01 0.0000000e+00 
-9.9749362e-02 7.0392493e-01 0.0000000e+00 
-1.0661212e-01 7.0271062e-01 0.0000000e+00 
-1.1347546e-01 7.0149739e-01 0.0000000e+00 
-9.4500647e-02 7.1429652e-01 0.0000000e+00 
-1.0136748e-01 7.1307952e-01 0.0000000e+00 
-1.0823454e-01 7.1186366e-01 0.0000000e+00 
-1.1510217e-01 7.1064887e-01 0.0000000e+00 
-9.6116877e-02 7.2345806e-01 0.0000000e+00 
-1.0298775e-01 7.2223960e-01 0.0000000e+00 
-1.0985885e-01 7.2102224e-01 0.0000000e+00 
-1.1673047e-01 7.1980584e-01 0.0000000e+00 
-9.7735308e-02 7.3262460e-01 0.0000000e+00 
-1.0461004e-01 7.3140484e-01 0.0000000e+00 
-1.1148497e-01 7.3018611e-01 0.0000000e+00 
-1.1836041e-01 7.2896833e-01 0.0000000e+00 
-9.9355923e-02 7.4179603e-01 0.0000000e+00 
-1.0623424e-01 7.4057498e-01 0.0000000e+00 
-1.1311277e-01 7.3935490e-01 0.0000000e+00 
-1.1999176e-01 7.3813568e-01 0.0000000e+00 
-1.0097849e-01 7.5097190e-01 0.0000000e+00 
-1.0786024e-01 7.4974969e-01 0.0000000e+00 
-1.1474218e-01 7.4852840e-01 0.0000000e+00 
-1.2162458e-01 7.4730794e-01 0.0000000e+00 
-1.0260296e-01 7.6015211e-01 0.0000000e+00 
-1.0948795e-01 7.5892876e-01 0.0000000e+00 
-1.1637313e-01 7.5770629e-01 0.0000000e+00 
-1.2325869e-01 7.5648461e-01 0.0000000e+00 
-1.0422924e-01 7.6933643e-01 0.0000000e+00 
-1.1111727e-01 7.6811197e-01 0.0000000e+00 