# vtk DataFile Version 4.0
vtk output
ASCII
DATASET UNSTRUCTURED_GRID
POINTS 604 float
5.5000000e+00 5.9700000e+00 0.0000000e+00 
5.5000000e+00 5.9900000e+00 0.0000000e+00 
5.5266667e+00 5.9700000e+00 0.0000000e+00 
5.5266667e+00 5.9900000e+00 0.0000000e+00 
5.5000000e+00 6.0100000e+00 0.0000000e+00 
5.5266667e+00 6.0100000e+00 0.0000000e+00 
5.5533333e+00 5.9700000e+00 0.0000000e+00 
5.5533333e+00 5.9900000e+00 0.0000000e+00 
5.5000000e+00 6.0300000e+00 0.0000000e+00 
5.5266667e+00 6.0300000e+00 0.0000000e+00 
5.5533333e+00 6.0100000e+00 0.0000000e+00 
5.5800000e+00 5.9700000e+00 0.0000000e+00 
5.5533333e+00 6.0300000e+00 0.0000000e+00 
5.5800000e+00 5.9900000e+00 0.0000000e+00 
5.5800000e+00 6.0100000e+00 0.0000000e+00 
5.5800000e+00 6.0300000e+00 0.0000000e+00 
5.6066667e+00 5.9700000e+00 0.0000000e+00 
5.6066667e+00 5.9900000e+00 0.0000000e+00 
5.6066667e+00 6.0100000e+00 0.0000000e+00 
5.6066667e+00 6.0300000e+00 0.0000000e+00 
5.6333333e+00 5.9700000e+00 0.0000000e+00 
5.6333333e+00 5.9900000e+00 0.0000000e+00 
5.6333333e+00 6.0100000e+00 0.0000000e+00 
5.6333333e+00 6.0300000e+00 0.0000000e+00 
5.6600000e+00 5.9700000e+00 0.0000000e+00 
5.6600000e+00 5.9900000e+00 0.0000000e+00 
5.6600000e+00 6.0100000e+00 0.0000000e+00 
5.6600000e+00 6.0300000e+00 0.0000000e+00 
5.6866667e+00 5.9700000e+00 0.0000000e+00 
5.6866667e+00 5.9900000e+00 0.0000000e+00 
5.6866667e+00 6.0100000e+00 0.0000000e+00 
5.6866667e+00 6.0300000e+00 0.0000000e+00 
5.7133333e+00 5.9700000e+00 0.0000000e+00 
5.7133333e+00 5.9900000e+00 0.0000000e+00 
5.7133333e+00 6.0100000e+00 0.0000000e+00 
5.7133333e+00 6.0300000e+00 0.0000000e+00 
5.7400000e+00 5.9700000e+00 0.0000000e+00 
5.7400000e+00 5.9900000e+00 0.0000000e+00 
5.7400000e+00 6.0100000e+00 0.0000000e+00 
5.7400000e+00 6.0300000e+00 0.0000000e+00 
5.7666667e+00 5.9700000e+00 0.0000000e+00 
5.7666667e+00 5.9900000e+00 0.0000000e+00 
5.7666667e+00 6.0100000e+00 0.0000000e+00 
5.7666667e+00 6.0300000e+00 0.0000000e+00 
5.7933333e+00 5.9700000e+00 0.0000000e+00 
5.7933333e+00 5.9900000e+00 0.0000000e+00 
5.7933333e+00 6.0100000e+00 0.0000000e+00 
5.7933333e+00 6.0300000e+00 0.0000000e+00 
5.8200000e+00 5.9700000e+00 0.0000000e+00 
5.8200000e+00 5.9900000e+00 0.0000000e+00 
5.8200000e+00 6.0100000e+00 0.0000000e+00 
5.8200000e+00 6.0300000e+00 0.0000000e+00 
5.8466667e+00 5.9700000e+00 0.0000000e+00 
5.8466667e+00 5.9900000e+00 0.0000000e+00 
5.8466667e+00 6.0100000e+00 0.0000000e+00 
5.8466667e+00 6.0300000e+00 0.0000000e+00 
5.8733333e+00 5.9700000e+00 0.0000000e+00 
5.8733333e+00 5.9900000e+00 0.0000000e+00 
5.8733333e+00 6.0100000e+00 0.0000000e+00 
5.8733333e+00 6.0300000e+00 0.0000000e+00 
5.9000000e+00 5.9700000e+00 0.0000000e+00 
5.9000000e+00 5.9900000e+00 0.0000000e+00 
5.9000000e+00 6.0100000e+00 0.0000000e+00 
5.9000000e+00 6.0300000e+00 0.0000000e+00 
5.9266667e+00 5.9700000e+00 0.0000000e+00 
5.9266667e+00 5.9900000e+00 0.0000000e+00 
5.9266667e+00 6.0100000e+00 0.0000000e+00 
5.9266667e+00 6.0300000e+00 0.0000000e+00 
5.9533333e+00 5.9700000e+00 0.0000000e+00 
5.9533333e+00 5.9900000e+00 0.0000000e+00 
5.9533333e+00 6.0100000e+00 0.0000000e+00 
5.9533333e+00 6.0300000e+00 0.0000000e+00 
5.9800000e+00 5.9700000e+00 0.0000000e+00 
5.9800000e+00 5.9900000e+00 0.0000000e+00 
5.9800000e+00 6.0100000e+00 0.0000000e+00 
5.9800000e+00 6.0300000e+00 0.0000000e+00 
6.0066667e+00 5.9700000e+00 0.0000000e+00 
6.0066667e+00 5.9900000e+00 0.0000000e+00 
6.0066667e+00 6.0100000e+00 0.0000000e+00 
6.0066667e+00 6.0300000e+00 0.0000000e+00 
6.0333333e+00 5.9700000e+00 0.0000000e+00 
6.0333333e+00 5.9900000e+00 0.0000000e+00 
6.0333333e+00 6.0100000e+00 0.0000000e+00 
6.0333333e+00 6.0300000e+00 0.0000000e+00 
6.0600000e+00 5.9700000e+00 0.0000000e+00 
6.0600000e+00 5.9900000e+00 0.0000000e+00 
6.0600000e+00 6.0100000e+00 0.0000000e+00 
6.0600000e+00 6.0300000e+00 0.0000000e+00 
6.0866667e+00 5.9700000e+00 0.0000000e+00 
6.0866667e+00 5.9900000e+00 0.0000000e+00 
6.0866667e+00 6.0100000e+00 0.0000000e+00 
6.0866667e+00 6.0300000e+00 0.0000000e+00 
6.1133333e+00 5.9700000e+00 0.0000000e+00 
6.1133333e+00 5.9900000e+00 0.0000000e+00 
6.1133333e+00 6.0100000e+00 0.0000000e+00 
6.1133333e+00 6.0300000e+00 0.0000000e+00 
6.1400000e+00 5.9700000e+00 0.0000000e+00 
6.1400000e+00 5.9900000e+00 0.0000000e+00 
6.1400000e+00 6.0100000e+00 0.0000000e+00 
6.1400000e+00 6.0300000e+00 0.0000000e+00 
6.1666667e+00 5.9700000e+00 0.0000000e+00 
6.1666667e+00 5.9900000e+00 0.0000000e+00 
6.1666667e+00 6.0100000e+00 0.0000000e+00 
6.1666667e+00 6.0300000e+00 0.0000000e+00 
6.1933333e+00 5.9700000e+00 0.0000000e+00 
6.1933333e+00 5.9900000e+00 0.0000000e+00 
6.1933333e+00 6.0100000e+00 0.0000000e+00 
6.1933333e+00 6.0300000e+00 0.0000000e+00 
6.2200000e+00 5.9700000e+00 0.0000000e+00 
6.2200000e+00 5.9900000e+00 0.0000000e+00 
6.2200000e+00 6.0100000e+00 0.0000000e+00 
6.2200000e+00 6.0300000e+00 0.0000000e+00 
6.2466667e+00 5.9700000e+00 0.0000000e+00 
6.2466667e+00 5.9900000e+00 0.0000000e+00 
6.2466667e+00 6.0100000e+00 0.0000000e+00 
6.2466667e+00 6.0300000e+00 0.0000000e+00 
6.2733333e+00 5.9700000e+00 0.0000000e+00 
6.2733333e+00 5.9900000e+00 0.0000000e+00 
6.2733333e+00 6.0100000e+00 0.0000000e+00 
6.2733333e+00 6.0300000e+00 0.0000000e+00 
6.3000000e+00 5.9700000e+00 0.0000000e+00 
6.3000000e+00 5.9900000e+00 0.0000000e+00 
6.3000000e+00 6.0100000e+00 0.0000000e+00 
6.3000000e+00 6.0300000e+00 0.0000000e+00 
6.3266667e+00 5.9700000e+00 0.0000000e+00 
6.3266667e+00 5.9900000e+00 0.0000000e+00 
6.3266667e+00 6.0100000e+00 0.0000000e+00 
6.3266667e+00 6.0300000e+00 0.0000000e+00 
6.3533333e+00 5.9700000e+00 0.0000000e+00 
6.3533333e+00 5.9900000e+00 0.0000000e+00 
6.3533333e+00 6.0100000e+00 0.0000000e+00 
6.3533333e+00 6.0300000e+00 0.0000000e+00 
6.3800000e+00 5.9700000e+00 0.0000000e+00 
6.3800000e+00 5.9900000e+00 0.0000000e+00 
6.3800000e+00 6.0100000e+00 0.0000000e+00 
6.3800000e+00 6.0300000e+00 0.0000000e+00 
6.4066667e+00 5.9700000e+00 0.0000000e+00 
6.4066667e+00 5.9900000e+00 0.0000000e+00 
6.4066667e+00 6.0100000e+00 0.0000000e+00 
6.4066667e+00 6.0300000e+00 0.0000000e+00 
6.4333333e+00 5.9700000e+00 0.0000000e+00 
6.4333333e+00 5.9900000e+00 0.0000000e+00 
6.4333333e+00 6.0100000e+00 0.0000000e+00 
6.4333333e+00 6.0300000e+00 0.0000000e+00 
6.4600000e+00 5.9700000e+00 0.0000000e+00 
6.4600000e+00 5.9900000e+00 0.0000000e+00 
6.4600000e+00 6.0100000e+00 0.0000000e+00 
6.4600000e+00 6.0300000e+00 0.0000000e+00 
6.4866667e+00 5.9700000e+00 0.0000000e+00 
6.4866667e+00 5.9900000e+00 0.0000000e+00 
6.4866667e+00 6.0100000e+00 0.0000000e+00 
6.4866667e+00 6.0300000e+00 0.0000000e+00 
6.5133333e+00 5.9700000e+00 0.0000000e+00 
6.5133333e+00 5.9900000e+00 0.0000000e+00 
6.5133333e+00 6.0100000e+00 0.0000000e+00 
6.5133333e+00 6.0300000e+00 0.0000000e+00 
6.5400000e+00 5.9700000e+00 0.0000000e+00 
6.5400000e+00 5.9900000e+00 0.0000000e+00 
6.5400000e+00 6.0100000e+00 0.0000000e+00 
6.5400000e+00 6.0300000e+00 0.0000000e+00 
6.5666667e+00 5.9700000e+00 0.0000000e+00 
6.5666667e+00 5.9900000e+00 0.0000000e+00 
6.5666667e+00 6.0100000e+00 0.0000000e+00 
6.5666667e+00 6.0300000e+00 0.0000000e+00 
6.5933333e+00 5.9700000e+00 0.0000000e+00 
6.5933333e+00 5.9900000e+00 0.0000000e+00 
6.5933333e+00 6.0100000e+00 0.0000000e+00 
6.5933333e+00 6.0300000e+00 0.0000000e+00 
6.6200000e+00 5.9700000e+00 0.0000000e+00 
6.6200000e+00 5.9900000e+00 0.0000000e+00 
6.6200000e+00 6.0100000e+00 0.0000000e+00 
6.6200000e+00 6.0300000e+00 0.0000000e+00 
6.6466667e+00 5.9700000e+00 0.0000000e+00 
6.6466667e+00 5.9900000e+00 0.0000000e+00 
6.6466667e+00 6.0100000e+00 0.0000000e+00 
6.6466667e+00 6.0300000e+00 0.0000000e+00 
6.6733333e+00 5.9700000e+00 0.0000000e+00 
6.6733333e+00 5.9900000e+00 0.0000000e+00 
6.6733333e+00 6.0100000e+00 0.0000000e+00 
6.6733333e+00 6.0300000e+00 0.0000000e+00 
6.7000000e+00 5.9700000e+00 0.0000000e+00 
6.7000000e+00 5.9900000e+00 0.0000000e+00 
6.7000000e+00 6.0100000e+00 0.0000000e+00 
6.7000000e+00 6.0300000e+00 0.0000000e+00 
6.7266667e+00 5.9700000e+00 0.0000000e+00 
6.7266667e+00 5.9900000e+00 0.0000000e+00 
6.7266667e+00 6.0100000e+00 0.0000000e+00 
6.7266667e+00 6.0300000e+00 0.0000000e+00 
6.7533333e+00 5.9700000e+00 0.0000000e+00 
6.7533333e+00 5.9900000e+00 0.0000000e+00 
6.7533333e+00 6.0100000e+00 0.0000000e+00 
6.7533333e+00 6.0300000e+00 0.0000000e+00 
6.7800000e+00 5.9700000e+00 0.0000000e+00 
6.7800000e+00 5.9900000e+00 0.0000000e+00 
6.7800000e+00 6.0100000e+00 0.0000000e+00 
6.7800000e+00 6.0300000e+00 0.0000000e+00 
6.8066667e+00 5.9700000e+00 0.0000000e+00 
6.8066667e+00 5.9900000e+00 0.0000000e+00 
6.8066667e+00 6.0100000e+00 0.0000000e+00 
6.8066667e+00 6.0300000e+00 0.0000000e+00 
6.8333333e+00 5.9700000e+00 0.0000000e+00 
6.8333333e+00 5.9900000e+00 0.0000000e+00 
6.8333333e+00 6.0100000e+00 0.0000000e+00 
6.8333333e+00 6.0300000e+00 0.0000000e+00 
6.8600000e+00 5.9700000e+00 0.0000000e+00 
6.8600000e+00 5.9900000e+00 0.0000000e+00 
6.8600000e+00 6.0100000e+00 0.0000000e+00 
6.8600000e+00 6.0300000e+00 0.0000000e+00 
6.8866667e+00 5.9700000e+00 0.0000000e+00 
6.8866667e+00 5.9900000e+00 0.0000000e+00 
6.8866667e+00 6.0100000e+00 0.0000000e+00 
6.8866667e+00 6.0300000e+00 0.0000000e+00 
6.9133333e+00 5.9700000e+00 0.0000000e+00 
6.9133333e+00 5.9900000e+00 0.0000000e+00 
6.9133333e+00 6.0100000e+00 0.0000000e+00 
6.9133333e+00 6.0300000e+00 0.0000000e+00 
6.9400000e+00 5.9700000e+00 0.0000000e+00 
6.9400000e+00 5.9900000e+00 0.0000000e+00 
6.9400000e+00 6.0100000e+00 0.0000000e+00 
6.9400000e+00 6.0300000e+00 0.0000000e+00 
6.9666667e+00 5.9700000e+00 0.0000000e+00 
6.9666667e+00 5.9900000e+00 0.0000000e+00 
6.9666667e+00 6.0100000e+00 0.0000000e+00 
6.9666667e+00 6.0300000e+00 0.0000000e+00 
6.9933333e+00 5.9700000e+00 0.0000000e+00 
6.9933333e+00 5.9900000e+00 0.0000000e+00 
6.9933333e+00 6.0100000e+00 0.0000000e+00 
6.9933333e+00 6.0300000e+00 0.0000000e+00 
7.0200000e+00 5.9700000e+00 0.0000000e+00 
7.0200000e+00 5.9900000e+00 0.0000000e+00 
[...]
POINT_DATA 604
FIELD FieldData 2
DISPLACEMENT 3 604  float
0.0000000e+00 0.0000000e+00 0.0000000e+00 
0.0000000e+00 0.0000000e+00 0.0000000e+00 
-5.0398308e-07 -3.0432483e-07 0.0000000e+00 
-1.6449314e-07 -1.9696472e-07 0.0000000e+00 
0.0000000e+00 0.0000000e+00 0.0000000e+00 
1.5398173e-07 -1.9691377e-07 0.0000000e+00 
-1.0168946e-06 -9.5726823e-07 0.0000000e+00 
-3.4358387e-07 -8.8077187e-07 0.0000000e+00 
0.0000000e+00 0.0000000e+00 0.0000000e+00 
4.9833723e-07 -3.0005567e-07 0.0000000e+00 
3.2975166e-07 -8.8763704e-07 0.0000000e+00 
-1.5216835e-06 -2.1039806e-06 0.0000000e+00 
1.0039143e-06 -9.8460140e-07 0.0000000e+00 
-5.1190443e-07 -2.0138509e-06 0.0000000e+00 
4.9368228e-07 -2.0151030e-06 0.0000000e+00 
1.5032112e-06 -2.0994864e-06 0.0000000e+00 
-2.0174945e-06 -3.6601868e-06 0.0000000e+00 
-6.7899790e-07 -3.5848058e-06 0.0000000e+00 
6.5581824e-07 -3.5909463e-06 0.0000000e+00 
1.9941702e-06 -3.6868453e-06 0.0000000e+00 
-2.5048054e-06 -5.6826964e-06 0.0000000e+00 
-8.4349418e-07 -5.5957935e-06 0.0000000e+00 
8.1474184e-07 -5.5962528e-06 0.0000000e+00 
2.4771614e-06 -5.6776922e-06 0.0000000e+00 
-2.9829483e-06 -8.1010577e-06 0.0000000e+00 
-1.0057667e-06 -8.0276555e-06 0.0000000e+00 
9.7042137e-07 -8.0358080e-06 0.0000000e+00 
2.9528464e-06 -8.1279481e-06 0.0000000e+00 
-3.4553221e-06 -1.0955641e-05 0.0000000e+00 
-1.1606154e-06 -1.0883548e-05 0.0000000e+00 
1.1281033e-06 -1.0891703e-05 0.0000000e+00 
3.4179393e-06 -1.0982307e-05 0.0000000e+00 
-3.9176477e-06 -1.4238778e-05 0.0000000e+00 
-1.3176718e-06 -1.4156237e-05 0.0000000e+00 
1.2781561e-06 -1.4156706e-05 0.0000000e+00 
3.8769123e-06 -1.4233964e-05 0.0000000e+00 
-4.3727279e-06 -1.7896673e-05 0.0000000e+00 
-1.4718336e-06 -1.7828169e-05 0.0000000e+00 
1.4257557e-06 -1.7834197e-05 0.0000000e+00 
4.3270718e-06 -1.7922785e-05 0.0000000e+00 
-4.8206622e-06 -2.1983808e-05 0.0000000e+00 
-1.6231298e-06 -2.1903936e-05 0.0000000e+00 
1.5709055e-06 -2.1905239e-05 0.0000000e+00 
4.7684232e-06 -2.1979582e-05 0.0000000e+00 
-5.2605317e-06 -2.6432380e-05 0.0000000e+00 
-1.7719786e-06 -2.6366667e-05 0.0000000e+00 
1.7132178e-06 -2.6372683e-05 0.0000000e+00 
5.2019955e-06 -2.6458518e-05 0.0000000e+00 
-5.6928879e-06 -3.1295737e-05 0.0000000e+00 
-1.9182939e-06 -3.1218698e-05 0.0000000e+00 
1.8528214e-06 -3.1220040e-05 0.0000000e+00 
5.6273408e-06 -3.1291706e-05 0.0000000e+00 
-6.1173591e-06 -3.6506816e-05 0.0000000e+00 
-2.0622040e-06 -3.6443762e-05 0.0000000e+00 
1.9896172e-06 -3.6449749e-05 0.0000000e+00 
6.0449457e-06 -3.6532775e-05 0.0000000e+00 
-6.5343991e-06 -4.2118368e-05 0.0000000e+00 
-2.2036115e-06 -4.2044154e-05 0.0000000e+00 
2.1237475e-06 -4.2045556e-05 0.0000000e+00 
6.4544619e-06 -4.2114616e-05 0.0000000e+00 
-6.9437100e-06 -4.8064254e-05 0.0000000e+00 
-2.3426309e-06 -4.8003856e-05 0.0000000e+00 
2.2551266e-06 -4.8009852e-05 0.0000000e+00 
6.8563052e-06 -4.8090143e-05 0.0000000e+00 
-7.3456288e-06 -5.4396541e-05 0.0000000e+00 
-2.4791882e-06 -5.4325129e-05 0.0000000e+00 
2.3838758e-06 -5.4326613e-05 0.0000000e+00 
7.2502462e-06 -5.4393122e-05 0.0000000e+00 
-7.7399869e-06 -6.1049905e-05 0.0000000e+00 
-2.6133642e-06 -6.0992170e-05 0.0000000e+00 
2.5099414e-06 -6.0998220e-05 0.0000000e+00 
7.6365725e-06 -6.1075862e-05 0.0000000e+00 
-8.1269878e-06 -6.8075873e-05 0.0000000e+00 
-2.7451064e-06 -6.8007251e-05 0.0000000e+00 
2.6334250e-06 -6.8008843e-05 0.0000000e+00 
8.0151899e-06 -6.8072871e-05 0.0000000e+00 
-8.5066408e-06 -7.5409918e-05 0.0000000e+00 
-2.8744750e-06 -7.5354759e-05 0.0000000e+00 
2.7542916e-06 -7.5360873e-05 0.0000000e+00 
8.3862032e-06 -7.5435856e-05 0.0000000e+00 
-8.8785122e-06 -8.3103022e-05 0.0000000e+00 
-3.0017109e-06 -8.3037334e-05 0.0000000e+00 
2.8723503e-06 -8.3038316e-05 0.0000000e+00 
8.7501568e-06 -8.3100086e-05 0.0000000e+00 
-9.2423488e-06 -9.1090746e-05 0.0000000e+00 
-3.1269320e-06 -9.1037480e-05 0.0000000e+00 
2.9874975e-06 -9.1045644e-05 0.0000000e+00 
9.1074086e-06 -9.1117348e-05 0.0000000e+00 
-9.6009543e-06 -9.9410223e-05 0.0000000e+00 
-3.2453399e-06 -9.9358320e-05 0.0000000e+00 
3.1046207e-06 -9.9366538e-05 0.0000000e+00 
9.4552640e-06 -9.9437056e-05 0.0000000e+00 
-9.9501963e-06 -1.0805496e-04 0.0000000e+00 
-3.3658339e-06 -1.0799335e-04 0.0000000e+00 
3.2148151e-06 -1.0799459e-04 0.0000000e+00 
9.7980622e-06 -1.0805280e-04 0.0000000e+00 
-1.0293346e-05 -1.1697497e-04 0.0000000e+00 
-3.4835648e-06 -1.1692659e-04 0.0000000e+00 
3.3230015e-06 -1.1693313e-04 0.0000000e+00 
1.0132619e-05 -1.1700218e-04 0.0000000e+00 
-1.0629608e-05 -1.2622177e-04 0.0000000e+00 
-3.5987468e-06 -1.2616264e-04 0.0000000e+00 
3.4289998e-06 -1.2616481e-04 0.0000000e+00 
1.0459856e-05 -1.2622053e-04 0.0000000e+00 
-1.0959046e-05 -1.3573145e-04 0.0000000e+00 
-3.7115433e-06 -1.3568590e-04 0.0000000e+00 
3.5326716e-06 -1.3569270e-04 0.0000000e+00 
1.0779779e-05 -1.3575963e-04 0.0000000e+00 
-1.1281193e-05 -1.4555560e-04 0.0000000e+00 
-3.8220862e-06 -1.4549909e-04 0.0000000e+00 
3.6339255e-06 -1.4550148e-04 0.0000000e+00 
1.1092982e-05 -1.4555491e-04 0.0000000e+00 
-1.1596689e-05 -1.5562981e-04 0.0000000e+00 
-3.9302566e-06 -1.5558700e-04 0.0000000e+00 
3.7329044e-06 -1.5559405e-04 0.0000000e+00 
1.1398888e-05 -1.5565884e-04 0.0000000e+00 
-1.1904946e-05 -1.6600638e-04 0.0000000e+00 
-4.0361938e-06 -1.6595248e-04 0.0000000e+00 
3.8295093e-06 -1.6595509e-04 0.0000000e+00 
1.1698218e-05 -1.6600629e-04 0.0000000e+00 
-1.2206678e-05 -1.7662042e-04 0.0000000e+00 
-4.1397668e-06 -1.7658033e-04 0.0000000e+00 
3.9238944e-06 -1.7658766e-04 0.0000000e+00 
1.1990316e-05 -1.7665037e-04 0.0000000e+00 
-1.2501217e-05 -1.8752492e-04 0.0000000e+00 
-4.2411373e-06 -1.8747360e-04 0.0000000e+00 
4.0159391e-06 -1.8747645e-04 0.0000000e+00 
1.2275983e-05 -1.8752546e-04 0.0000000e+00 
-1.2789352e-05 -1.9865444e-04 0.0000000e+00 
-4.3401553e-06 -1.9861706e-04 0.0000000e+00 
4.1058154e-06 -1.9862470e-04 0.0000000e+00 
1.2554487e-05 -1.9868538e-04 0.0000000e+00 
-1.3070363e-05 -2.1006272e-04 0.0000000e+00 
-4.4369901e-06 -2.1001396e-04 0.0000000e+00 
4.1933959e-06 -2.1001705e-04 0.0000000e+00 
1.2826681e-05 -2.1006391e-04 0.0000000e+00 
-1.3345127e-05 -2.2168383e-04 0.0000000e+00 
-4.5314978e-06 -2.2164905e-04 0.0000000e+00 
4.2788453e-06 -2.2165696e-04 0.0000000e+00 
1.3091747e-05 -2.2171555e-04 0.0000000e+00 
-1.3612356e-05 -2.3357217e-04 0.0000000e+00 
-4.6241406e-06 -2.3352613e-04 0.0000000e+00 
4.3617454e-06 -2.3352866e-04 0.0000000e+00 
1.3351102e-05 -2.3357360e-04 0.0000000e+00 
-1.3872532e-05 -2.4566068e-04 0.0000000e+00 
-4.7148539e-06 -2.4562770e-04 0.0000000e+00 
4.4421696e-06 -2.4563805e-04 0.0000000e+00 
1.3604322e-05 -2.4569383e-04 0.0000000e+00 
-1.4128075e-05 -2.5798983e-04 0.0000000e+00 
-4.7985734e-06 -2.5795830e-04 0.0000000e+00 
4.5252685e-06 -2.5796875e-04 0.0000000e+00 
1.3849109e-05 -2.5802371e-04 0.0000000e+00 
-1.4374613e-05 -2.7055444e-04 0.0000000e+00 
-4.8848882e-06 -2.7051210e-04 0.0000000e+00 
4.6014455e-06 -2.7051507e-04 0.0000000e+00 
1.4090025e-05 -2.7055689e-04 0.0000000e+00 
-1.4616068e-05 -2.8330105e-04 0.0000000e+00 
-4.9685140e-06 -2.8327302e-04 0.0000000e+00 
4.6760491e-06 -2.8328182e-04 0.0000000e+00 
1.4323214e-05 -2.8333581e-04 0.0000000e+00 
-1.4851144e-05 -2.9628742e-04 0.0000000e+00 
-5.0498139e-06 -2.9624730e-04 0.0000000e+00 
4.7487524e-06 -2.9625131e-04 0.0000000e+00 
1.4550109e-05 -2.9629090e-04 0.0000000e+00 
-1.5080273e-05 -3.0944443e-04 0.0000000e+00 
-5.1288705e-06 -3.0941911e-04 0.0000000e+00 
4.8194920e-06 -3.0942826e-04 0.0000000e+00 
1.4770326e-05 -3.0948055e-04 0.0000000e+00 
-1.5302657e-05 -3.2283055e-04 0.0000000e+00 
-5.2059133e-06 -3.2279278e-04 0.0000000e+00 
4.8880818e-06 -3.2279704e-04 0.0000000e+00 
1.4984801e-05 -3.2283461e-04 0.0000000e+00 
-1.5519226e-05 -3.3637555e-04 0.0000000e+00 
-5.2807499e-06 -3.3635278e-04 0.0000000e+00 
4.9547333e-06 -3.3636225e-04 0.0000000e+00 
1.5192650e-05 -3.3641275e-04 0.0000000e+00 
-1.5729167e-05 -3.5013911e-04 0.0000000e+00 
-5.3535919e-06 -3.5010367e-04 0.0000000e+00 
5.0192788e-06 -3.5010817e-04 0.0000000e+00 
1.5394834e-05 -3.5014376e-04 0.0000000e+00 
-1.5933380e-05 -3.6405011e-04 0.0000000e+00 
-5.4242600e-06 -3.6402986e-04 0.0000000e+00 
5.0819189e-06 -3.6403964e-04 0.0000000e+00 
1.5590496e-05 -3.6408839e-04 0.0000000e+00 
-1.6131075e-05 -3.7816930e-04 0.0000000e+00 
-5.4929653e-06 -3.7813616e-04 0.0000000e+00 
5.1424874e-06 -3.7814089e-04 0.0000000e+00 
1.5780582e-05 -3.7817453e-04 0.0000000e+00 
-1.6323133e-05 -3.9242468e-04 0.0000000e+00 
-5.5595319e-06 -3.9240689e-04 0.0000000e+00 
5.2011835e-06 -3.9241699e-04 0.0000000e+00 
1.5964259e-05 -3.9246400e-04 0.0000000e+00 
-1.6508810e-05 -4.0687800e-04 0.0000000e+00 
-5.6241571e-06 -4.0684713e-04 0.0000000e+00 
5.2578574e-06 -4.0685209e-04 0.0000000e+00 
1.6142435e-05 -4.0688383e-04 0.0000000e+00 
-1.6688996e-05 -4.2145665e-04 0.0000000e+00 
-5.6866939e-06 -4.2144115e-04 0.0000000e+00 
5.3126816e-06 -4.2145151e-04 0.0000000e+00 
1.6314277e-05 -4.2149669e-04 0.0000000e+00 
-1.6862399e-05 -4.3622313e-04 0.0000000e+00 
-5.7476484e-06 -4.3619468e-04 0.0000000e+00 
5.3652028e-06 -4.3619896e-04 0.0000000e+00 
1.6481247e-05 -4.3622903e-04 0.0000000e+00 
-1.7029387e-05 -4.5110359e-04 0.0000000e+00 
-5.8069871e-06 -4.5108948e-04 0.0000000e+00 
5.4154665e-06 -4.5110247e-04 0.0000000e+00 
1.6643044e-05 -4.5114498e-04 0.0000000e+00 
-1.7192860e-05 -4.6614489e-04 0.0000000e+00 
-5.8590341e-06 -4.6613204e-04 0.0000000e+00 
5.4692705e-06 -4.6614513e-04 0.0000000e+00 
1.6796938e-05 -4.6618693e-04 0.0000000e+00 
-1.7347991e-05 -4.8134255e-04 0.0000000e+00 
-5.9145354e-06 -4.8131729e-04 0.0000000e+00 
5.5158563e-06 -4.8132193e-04 0.0000000e+00 
1.6948037e-05 -4.8134926e-04 0.0000000e+00 
-1.7498943e-05 -4.9663834e-04 0.0000000e+00 
-5.9676190e-06 -4.9662869e-04 0.0000000e+00 
5.5611960e-06 -4.9663981e-04 0.0000000e+00 
1.7092284e-05 -4.9668099e-04 0.0000000e+00 
-1.7644599e-05 -5.1209813e-04 0.0000000e+00 
-6.0186352e-06 -5.1207469e-04 0.0000000e+00 
5.6049929e-06 -5.1208041e-04 0.0000000e+00 
1.7231000e-05 -5.1210576e-04 0.0000000e+00 
-1.7785153e-05 -5.2764647e-04 0.0000000e+00 
-6.0677496e-06 -5.2763912e-04 0.0000000e+00 
5.6471186e-06 -5.2765051e-04 0.0000000e+00 
1.7364097e-05 -5.2769025e-04 0.0000000e+00 
-1.7920062e-05 -5.4334974e-04 0.0000000e+00 
-6.1151636e-06 -5.4332826e-04 0.0000000e+00 
5.6874407e-06 -5.4333417e-04 0.0000000e+00 
1.7492323e-05 -5.4335779e-04 0.0000000e+00 
-1.8050069e-05 -5.5913165e-04 0.0000000e+00 
-6.1607389e-06 -5.5912640e-04 0.0000000e+00 
5.7261350e-06 -5.5913802e-04 0.0000000e+00 
1.7615053e-05 -5.5917624e-04 0.0000000e+00 
-1.8174621e-05 -5.7505965e-04 0.0000000e+00 
-6.2046542e-06 -5.7504008e-04 0.0000000e+00 
5.7630971e-06 -5.7504616e-04 0.0000000e+00 
1.7733052e-05 -5.7506811e-04 0.0000000e+00 
-1.8294434e-05 -5.9105684e-04 0.0000000e+00 
-6.2467853e-06 -5.9105362e-04 0.0000000e+00 
5.7984889e-06 -5.9106547e-04 0.0000000e+00 
1.7845737e-05 -5.9110221e-04 0.0000000e+00 
-1.8408968e-05 -6.0719156e-04 0.0000000e+00 
-6.2873124e-06 -6.0717384e-04 0.0000000e+00 
5.8322101e-06 -6.0718008e-04 0.0000000e+00 
1.7953860e-05 -6.0720042e-04 0.0000000e+00 
-1.8518936e-05 -6.2338635e-04 0.0000000e+00 
-6.3261101e-06 -6.2338509e-04 0.0000000e+00 
5.8644226e-06 -6.2339716e-04 0.0000000e+00 
1.8056854e-05 -6.2343247e-04 0.0000000e+00 
-1.8623820e-05 -6.3971041e-04 0.0000000e+00 
-6.3633475e-06 -6.3969447e-04 0.0000000e+00 
5.8950416e-06 -6.3970087e-04 0.0000000e+00 
1.8155445e-05 -6.3971968e-04 0.0000000e+00 
-1.8724369e-05 -6.5608592e-04 0.0000000e+00 
-6.3989226e-06 -6.5608640e-04 0.0000000e+00 
5.9242035e-06 -6.5609865e-04 0.0000000e+00 
1.8249044e-05 -6.5613245e-04 0.0000000e+00 
-1.8819438e-05 -6.7258269e-04 0.0000000e+00 
-6.4333463e-06 -6.7256870e-04 0.0000000e+00 
5.9514882e-06 -6.7257427e-04 0.0000000e+00 
1.8338995e-05 -6.7259182e-04 0.0000000e+00 
-1.8909224e-05 -6.8912189e-04 0.0000000e+00 
-6.4666326e-06 -6.8912313e-04 0.0000000e+00 
5.9768923e-06 -6.8913813e-04 0.0000000e+00 
1.8425269e-05 -6.8916954e-04 0.0000000e+00 
-1.8997078e-05 -7.0575613e-04 0.0000000e+00 
-6.4925948e-06 -7.0575836e-04 0.0000000e+00 
6.0067736e-06 -7.0577342e-04 0.0000000e+00 
1.8504696e-05 -7.0580430e-04 0.0000000e+00 
-1.9077759e-05 -7.2248211e-04 0.0000000e+00 
-6.5229209e-06 -7.2247051e-04 0.0000000e+00 
6.0294251e-06 -7.2247634e-04 0.0000000e+00 
1.8582892e-05 -7.2249177e-04 0.0000000e+00 
-1.9155674e-05 -7.3923832e-04 0.0000000e+00 
-6.5512439e-06 -7.3924329e-04 0.0000000e+00 
6.0513380e-06 -7.3925611e-04 0.0000000e+00 
1.8655628e-05 -7.3928688e-04 0.0000000e+00 
-1.9229762e-05 -7.5609788e-04 0.0000000e+00 
-6.5779174e-06 -7.5608754e-04 0.0000000e+00 
6.0722321e-06 -7.5609447e-04 0.0000000e+00 
1.8724150e-05 -7.5610834e-04 0.0000000e+00 
-1.9300092e-05 -7.7298062e-04 0.0000000e+00 
-6.6031350e-06 -7.7298737e-04 0.0000000e+00 
6.0919360e-06 -7.7300042e-04 0.0000000e+00 
1.8788538e-05 -7.7303019e-04 0.0000000e+00 
-1.9366189e-05 -7.8996021e-04 0.0000000e+00 
-6.6271000e-06 -7.8995127e-04 0.0000000e+00 
6.1103321e-06 -7.8995833e-04 0.0000000e+00 
1.8849435e-05 -7.8997090e-04 0.0000000e+00 
-1.9428729e-05 -8.0695548e-04 0.0000000e+00 
-6.6496657e-06 -8.0696381e-04 0.0000000e+00 
6.1275835e-06 -8.0697704e-04 0.0000000e+00 
1.8906303e-05 -8.0700574e-04 0.0000000e+00 
-1.9487208e-05 -8.2404133e-04 0.0000000e+00 
-6.6710130e-06 -8.2403375e-04 0.0000000e+00 
6.1435916e-06 -8.2404093e-04 0.0000000e+00 
1.8959809e-05 -8.2405227e-04 0.0000000e+00 
-1.9542262e-05 -8.4113580e-04 0.0000000e+00 
-6.6910048e-06 -8.4114566e-04 0.0000000e+00 
6.1585072e-06 -8.4115908e-04 0.0000000e+00 
1.9009436e-05 -8.4118676e-04 0.0000000e+00 
-1.9593399e-05 -8.5831484e-04 0.0000000e+00 
-6.7098230e-06 -8.5830857e-04 0.0000000e+00 
6.1722263e-06 -8.5831587e-04 0.0000000e+00 
1.9055836e-05 -8.5832601e-04 0.0000000e+00 
-1.9641235e-05 -8.7549567e-04 0.0000000e+00 
-6.7273275e-06 -8.7550701e-04 0.0000000e+00 
6.1849011e-06 -8.7552063e-04 0.0000000e+00 
1.9098498e-05 -8.7554732e-04 0.0000000e+00 
-1.9685315e-05 -8.9275529e-04 0.0000000e+00 
-6.7436858e-06 -8.9275029e-04 0.0000000e+00 
6.1964379e-06 -8.9275771e-04 0.0000000e+00 
1.9138033e-05 -8.9276671e-04 0.0000000e+00 
-1.9726264e-05 -9.1001031e-04 0.0000000e+00 
-6.7587848e-06 -9.1002292e-04 0.0000000e+00 
6.2069608e-06 -9.1003669e-04 0.0000000e+00 
1.9173911e-05 -9.1006228e-04 0.0000000e+00 
-1.9762968e-05 -9.2733847e-04 0.0000000e+00 
-6.7731614e-06 -9.2733494e-04 0.0000000e+00 
6.2160062e-06 -9.2734138e-04 0.0000000e+00 
1.9207400e-05 -9.2734953e-04 0.0000000e+00 
-1.9795408e-05 -9.4465506e-04 0.0000000e+00 
-6.7868441e-06 -9.4466789e-04 0.0000000e+00 
6.2235382e-06 -9.4468460e-04 0.0000000e+00 
1.9238606e-05 -9.4470810e-04 0.0000000e+00 
-1.9827390e-05 -9.6201905e-04 0.0000000e+00 
-6.7930387e-06 -9.6203267e-04 0.0000000e+00 
6.2364900e-06 -9.6204944e-04 0.0000000e+00 
1.9263865e-05 -9.6207263e-04 0.0000000e+00 
-1.9853156e-05 -9.7942832e-04 0.0000000e+00 
-6.8045260e-06 -9.7942647e-04 0.0000000e+00 
6.2420559e-06 -9.7943309e-04 0.0000000e+00 
1.9289226e-05 -9.7943963e-04 0.0000000e+00 
-1.9877252e-05 -9.9681672e-04 0.0000000e+00 
-6.8143468e-06 -9.9683275e-04 0.0000000e+00 
6.2472916e-06 -9.9684701e-04 0.0000000e+00 
1.9310247e-05 -9.9687055e-04 0.0000000e+00 
-1.9898796e-05 -1.0142658e-03 0.0000000e+00 
-6.8228429e-06 -1.0142647e-03 0.0000000e+00 
6.2519127e-06 -1.0142725e-03 0.0000000e+00 
1.9327989e-05 -1.0142778e-03 0.0000000e+00 
-1.9917529e-05 -1.0316889e-03 0.0000000e+00 
-6.8302650e-06 -1.0317063e-03 0.0000000e+00 
6.2556896e-06 -1.0317207e-03 0.0000000e+00 
1.9342799e-05 -1.0317436e-03 0.0000000e+00 
-1.9933262e-05 -1.0491681e-03 0.0000000e+00 
-6.8367867e-06 -1.0491680e-03 0.0000000e+00 
6.2585197e-06 -1.0491758e-03 0.0000000e+00 
1.9355050e-05 -1.0491801e-03 0.0000000e+00 
-1.9946362e-05 -1.0666157e-03 0.0000000e+00 
-6.8423022e-06 -1.0666342e-03 0.0000000e+00 
6.2605325e-06 -1.0666488e-03 0.0000000e+00 
1.9364476e-05 -1.0666710e-03 0.0000000e+00 
-1.9956665e-05 -1.0841151e-03 0.0000000e+00 
-6.8469535e-06 -1.0841159e-03 0.0000000e+00 
6.2616614e-06 -1.0841238e-03 0.0000000e+00 
1.9371436e-05 -1.0841271e-03 0.0000000e+00 
-1.9964466e-05 -1.1015777e-03 0.0000000e+00 
-6.8506597e-06 -1.1015973e-03 0.0000000e+00 
6.2620147e-06 -1.1016120e-03 0.0000000e+00 
1.9375750e-05 -1.1016334e-03 0.0000000e+00 
-1.9969670e-05 -1.1190879e-03 0.0000000e+00 
-6.8535579e-06 -1.1190896e-03 0.0000000e+00 
6.2615361e-06 -1.1190975e-03 0.0000000e+00 
1.9377719e-05 -1.1191000e-03 0.0000000e+00 
-1.9972516e-05 -1.1365565e-03 0.0000000e+00 
-6.8555778e-06 -1.1365771e-03 0.0000000e+00 
6.2603271e-06 -1.1365920e-03 0.0000000e+00 
1.9377238e-05 -1.1366128e-03 0.0000000e+00 
-1.9973002e-05 -1.1540689e-03 0.0000000e+00 
-6.8568349e-06 -1.1540714e-03 0.0000000e+00 
6.2583591e-06 -1.1540794e-03 0.0000000e+00 
1.9374523e-05 -1.1540811e-03 0.0000000e+00 
-1.9971353e-05 -1.1715355e-03 0.0000000e+00 
-6.8572995e-06 -1.1715568e-03 0.0000000e+00 
6.2556955e-06 -1.1715717e-03 0.0000000e+00 
1.9369506e-05 -1.1715917e-03 0.0000000e+00 
-1.9966900e-05 -1.1890421e-03 0.0000000e+00 
-6.8574834e-06 -1.1890456e-03 0.0000000e+00 
6.2519222e-06 -1.1890524e-03 0.0000000e+00 
1.9363076e-05 -1.1890536e-03 0.0000000e+00 
-1.9959120e-05 -1.2064981e-03 0.0000000e+00 
-6.8575318e-06 -1.2065190e-03 0.0000000e+00 
6.2469013e-06 -1.2065370e-03 0.0000000e+00 
1.9355934e-05 -1.2065551e-03 0.0000000e+00 
-1.9952648e-05 -1.2239689e-03 0.0000000e+00 
-6.8500541e-06 -1.2239903e-03 0.0000000e+00 
6.2482380e-06 -1.2240083e-03 0.0000000e+00 
1.9343658e-05 -1.2240262e-03 0.0000000e+00 
-1.9941338e-05 -1.2414534e-03 0.0000000e+00 
-6.8489222e-06 -1.2414577e-03 0.0000000e+00 
6.2420270e-06 -1.2414646e-03 0.0000000e+00 
1.9332870e-05 -1.2414648e-03 0.0000000e+00 
-1.9929672e-05 -1.2588817e-03 0.0000000e+00 
-6.8466782e-06 -1.2589050e-03 0.0000000e+00 
6.2358940e-06 -1.2589201e-03 0.0000000e+00 
1.9319328e-05 -1.2589389e-03 0.0000000e+00 
-1.9917340e-05 -1.2763433e-03 0.0000000e+00 
-6.8435903e-06 -1.2763478e-03 0.0000000e+00 
6.2296621e-06 -1.2763559e-03 0.0000000e+00 
1.9303573e-05 -1.2763552e-03 0.0000000e+00 
-1.9903507e-05 -1.2937464e-03 0.0000000e+00 
-6.8400511e-06 -1.2937705e-03 0.0000000e+00 
6.2229771e-06 -1.2937856e-03 0.0000000e+00 
1.9286665e-05 -1.2938043e-03 0.0000000e+00 
-1.9888608e-05 -1.3111809e-03 0.0000000e+00 
-6.8361596e-06 -1.3111858e-03 0.0000000e+00 
6.2158550e-06 -1.3111938e-03 0.0000000e+00 
1.9268389e-05 -1.3111926e-03 0.0000000e+00 
-1.9872470e-05 -1.3285542e-03 0.0000000e+00 
-6.8319216e-06 -1.3285787e-03 0.0000000e+00 
6.2083240e-06 -1.3285939e-03 0.0000000e+00 
1.9249157e-05 -1.3286122e-03 0.0000000e+00 
-1.9855565e-05 -1.3459572e-03 0.0000000e+00 
-6.8273957e-06 -1.3459624e-03 0.0000000e+00 
6.2004434e-06 -1.3459704e-03 0.0000000e+00 
1.9228705e-05 -1.3459688e-03 0.0000000e+00 
-1.9837618e-05 -1.3632970e-03 0.0000000e+00 
-6.8226147e-06 -1.3633219e-03 0.0000000e+00 
6.1922110e-06 -1.3633371e-03 0.0000000e+00 
1.9207554e-05 -1.3633551e-03 0.0000000e+00 
-1.9819179e-05 -1.3806653e-03 0.0000000e+00 
-6.8176258e-06 -1.3806706e-03 0.0000000e+00 
6.1836992e-06 -1.3806786e-03 0.0000000e+00 
1.9185352e-05 -1.3806767e-03 0.0000000e+00 
-1.9799892e-05 -1.3979687e-03 0.0000000e+00 
-6.8124723e-06 -1.3979938e-03 0.0000000e+00 
6.1748908e-06 -1.3980090e-03 0.0000000e+00 
1.9162702e-05 -1.3980268e-03 0.0000000e+00 
-1.9780406e-05 -1.4152995e-03 0.0000000e+00 
-6.8071718e-06 -1.4153051e-03 0.0000000e+00 
6.1658881e-06 -1.4153130e-03 0.0000000e+00 
1.9139141e-05 -1.4153108e-03 0.0000000e+00 
-1.9760324e-05 -1.4325646e-03 0.0000000e+00 
-6.8018086e-06 -1.4325897e-03 0.0000000e+00 
6.1566275e-06 -1.4326049e-03 0.0000000e+00 
1.9115308e-05 -1.4326224e-03 0.0000000e+00 
-1.9739599e-05 -1.4498566e-03 0.0000000e+00 
-6.7968076e-06 -1.4498624e-03 0.0000000e+00 
6.1468065e-06 -1.4498691e-03 0.0000000e+00 
1.9091421e-05 -1.4498670e-03 0.0000000e+00 
-1.9717006e-05 -1.4670812e-03 0.0000000e+00 
-6.7924547e-06 -1.4671051e-03 0.0000000e+00 
6.1361279e-06 -1.4671233e-03 0.0000000e+00 
1.9068945e-05 -1.4671394e-03 0.0000000e+00 