# vtk DataFile Version 4.0
vtk output
ASCII
DATASET UNSTRUCTURED_GRID
POINTS 604 float
5.5000000e+00 5.9700000e+00 0.0000000e+00 
5.5000000e+00 5.9900000e+00 0.0000000e+00 
5.5266667e+00 5.9700000e+00 0.0000000e+00 
5.5266667e+00 5.9900000e+00 0.0000000e+00 
5.5000000e+00 6.0100000e+00 0.0000000e+00 
5.5266667e+00 6.0100000e+00 0.0000000e+00 
5.5533333e+00 5.9700000e+00 0.0000000e+00 
5.5533333e+00 5.9900000e+00 0.0000000e+00 
5.5000000e+00 6.0300000e+00 0.0000000e+00 
5.5266667e+00 6.0300000e+00 0.0000000e+00 
5.5533333e+00 6.0100000e+00 0.0000000e+00 
5.5800000e+00 5.9700000e+00 0.0000000e+00 
5.5533333e+00 6.0300000e+00 0.0000000e+00 
5.5800000e+00 5.9900000e+00 0.0000000e+00 
5.5800000e+00 6.0100000e+00 0.0000000e+00 
5.5800000e+00 6.0300000e+00 0.0000000e+00 
5.6066667e+00 5.9700000e+00 0.0000000e+00 
5.6066667e+00 5.9900000e+00 0.0000000e+00 
5.6066667e+00 6.0100000e+00 0.0000000e+00 
5.6066667e+00 6.0300000e+00 0.0000000e+00 
5.6333333e+00 5.9700000e+00 0.0000000e+00 
5.6333333e+00 5.9900000e+00 0.0000000e+00 
5.6333333e+00 6.0100000e+00 0.0000000e+00 
5.6333333e+00 6.0300000e+00 0.0000000e+00 
5.6600000e+00 5.9700000e+00 0.0000000e+00 
5.6600000e+00 5.9900000e+00 0.0000000e+00 
5.6600000e+00 6.0100000e+00 0.0000000e+00 
5.6600000e+00 6.0300000e+00 0.0000000e+00 
5.6866667e+00 5.9700000e+00 0.0000000e+00 
5.6866667e+00 5.9900000e+00 0.0000000e+00 
5.6866667e+00 6.0100000e+00 0.0000000e+00 
5.6866667e+00 6.0300000e+00 0.0000000e+00 
5.7133333e+00 5.9700000e+00 0.0000000e+00 
5.7133333e+00 5.9900000e+00 0.0000000e+00 
5.7133333e+00 6.0100000e+00 0.0000000e+00 
5.7133333e+00 6.0300000e+00 0.0000000e+00 
5.7400000e+00 5.9700000e+00 0.0000000e+00 
5.7400000e+00 5.9900000e+00 0.0000000e+00 
5.7400000e+00 6.0100000e+00 0.0000000e+00 
5.7400000e+00 6.0300000e+00 0.0000000e+00 
5.7666667e+00 5.9700000e+00 0.0000000e+00 
5.7666667e+00 5.9900000e+00 0.0000000e+00 
5.7666667e+00 6.0100000e+00 0.0000000e+00 
5.7666667e+00 6.0300000e+00 0.0000000e+00 
5.7933333e+00 5.9700000e+00 0.0000000e+00 
5.7933333e+00 5.9900000e+00 0.0000000e+00 
5.7933333e+00 6.0100000e+00 0.0000000e+00 
5.7933333e+00 6.0300000e+00 0.0000000e+00 
5.8200000e+00 5.9700000e+00 0.0000000e+00 
5.8200000e+00 5.9900000e+00 0.0000000e+00 
5.8200000e+00 6.0100000e+00 0.0000000e+00 
5.8200000e+00 6.0300000e+00 0.0000000e+00 
5.8466667e+00 5.9700000e+00 0.0000000e+00 
5.8466667e+00 5.9900000e+00 0.0000000e+00 
5.8466667e+00 6.0100000e+00 0.0000000e+00 
5.8466667e+00 6.0300000e+00 0.0000000e+00 
5.8733333e+00 5.9700000e+00 0.0000000e+00 
5.8733333e+00 5.9900000e+00 0.0000000e+00 
5.8733333e+00 6.0100000e+00 0.0000000e+00 
5.8733333e+00 6.0300000e+00 0.0000000e+00 
5.9000000e+00 5.9700000e+00 0.0000000e+00 
5.9000000e+00 5.9900000e+00 0.0000000e+00 
5.9000000e+00 6.0100000e+00 0.0000000e+00 
5.9000000e+00 6.0300000e+00 0.0000000e+00 
5.9266667e+00 5.9700000e+00 0.0000000e+00 
5.9266667e+00 5.9900000e+00 0.0000000e+00 
5.9266667e+00 6.0100000e+00 0.0000000e+00 
5.9266667e+00 6.0300000e+00 0.0000000e+00 
5.9533333e+00 5.9700000e+00 0.0000000e+00 
5.9533333e+00 5.9900000e+00 0.0000000e+00 
5.9533333e+00 6.0100000e+00 0.0000000e+00 
5.9533333e+00 6.0300000e+00 0.0000000e+00 
5.9800000e+00 5.9700000e+00 0.0000000e+00 
5.9800000e+00 5.9900000e+00 0.0000000e+00 
5.9800000e+00 6.0100000e+00 0.0000000e+00 
5.9800000e+00 6.0300000e+00 0.0000000e+00 
6.0066667e+00 5.9700000e+00 0.0000000e+00 
6.0066667e+00 5.9900000e+00 0.0000000e+00 
6.0066667e+00 6.0100000e+00 0.0000000e+00 
6.0066667e+00 6.0300000e+00 0.0000000e+00 
6.0333333e+00 5.9700000e+00 0.0000000e+00 
6.0333333e+00 5.9900000e+00 0.0000000e+00 
6.0333333e+00 6.0100000e+00 0.0000000e+00 
6.0333333e+00 6.0300000e+00 0.0000000e+00 
6.0600000e+00 5.9700000e+00 0.0000000e+00 
6.0600000e+00 5.9900000e+00 0.0000000e+00 
6.0600000e+00 6.0100000e+00 0.0000000e+00 
6.0600000e+00 6.0300000e+00 0.0000000e+00 
6.0866667e+00 5.9700000e+00 0.0000000e+00 
6.0866667e+00 5.9900000e+00 0.0000000e+00 
6.0866667e+00 6.0100000e+00 0.0000000e+00 
6.0866667e+00 6.0300000e+00 0.0000000e+00 
6.1133333e+00 5.9700000e+00 0.0000000e+00 
6.1133333e+00 5.9900000e+00 0.0000000e+00 
6.1133333e+00 6.0100000e+00 0.0000000e+00 
6.1133333e+00 6.0300000e+00 0.0000000e+00 
6.1400000e+00 5.9700000e+00 0.0000000e+00 
6.1400000e+00 5.9900000e+00 0.0000000e+00 
6.1400000e+00 6.0100000e+00 0.0000000e+00 
6.1400000e+00 6.0300000e+00 0.0000000e+00 
6.1666667e+00 5.9700000e+00 0.0000000e+00 
6.1666667e+00 5.9900000e+00 0.0000000e+00 
6.1666667e+00 6.0100000e+00 0.0000000e+00 
6.1666667e+00 6.0300000e+00 0.0000000e+00 
6.1933333e+00 5.9700000e+00 0.0000000e+00 
6.1933333e+00 5.9900000e+00 0.0000000e+00 
6.1933333e+00 6.0100000e+00 0.0000000e+00 
6.1933333e+00 6.0300000e+00 0.0000000e+00 
6.2200000e+00 5.9700000e+00 0.0000000e+00 
6.2200000e+00 5.9900000e+00 0.0000000e+00 
6.2200000e+00 6.0100000e+00 0.0000000e+00 
6.2200000e+00 6.0300000e+00 0.0000000e+00 
6.2466667e+00 5.9700000e+00 0.0000000e+00 
6.2466667e+00 5.9900000e+00 0.0000000e+00 
6.2466667e+00 6.0100000e+00 0.0000000e+00 
6.2466667e+00 6.0300000e+00 0.0000000e+00 
6.2733333e+00 5.9700000e+00 0.0000000e+00 
6.2733333e+00 5.9900000e+00 0.0000000e+00 
6.2733333e+00 6.0100000e+00 0.0000000e+00 
6.2733333e+00 6.0300000e+00 0.0000000e+00 
6.3000000e+00 5.9700000e+00 0.0000000e+00 
6.3000000e+00 5.9900000e+00 0.0000000e+00 
6.3000000e+00 6.0100000e+00 0.0000000e+00 
6.3000000e+00 6.0300000e+00 0.0000000e+00 
6.3266667e+00 5.9700000e+00 0.0000000e+00 
6.3266667e+00 5.9900000e+00 0.0000000e+00 
6.3266667e+00 6.0100000e+00 0.0000000e+00 
6.3266667e+00 6.0300000e+00 0.0000000e+00 
6.3533333e+00 5.9700000e+00 0.0000000e+00 
6.3533333e+00 5.9900000e+00 0.0000000e+00 
6.3533333e+00 6.0100000e+00 0.0000000e+00 
6.3533333e+00 6.0300000e+00 0.0000000e+00 
6.3800000e+00 5.9700000e+00 0.0000000e+00 
6.3800000e+00 5.9900000e+00 0.0000000e+00 
6.3800000e+00 6.0100000e+00 0.0000000e+00 
6.3800000e+00 6.0300000e+00 0.0000000e+00 
6.4066667e+00 5.9700000e+00 0.0000000e+00 
6.4066667e+00 5.9900000e+00 0.0000000e+00 
6.4066667e+00 6.0100000e+00 0.0000000e+00 
6.4066667e+00 6.0300000e+00 0.0000000e+00 
6.4333333e+00 5.9700000e+00 0.0000000e+00 
6.4333333e+00 5.9900000e+00 0.0000000e+00 
6.4333333e+00 6.0100000e+00 0.0000000e+00 
6.4333333e+00 6.0300000e+00 0.0000000e+00 
6.4600000e+00 5.9700000e+00 0.0000000e+00 
6.4600000e+00 5.9900000e+00 0.0000000e+00 
6.4600000e+00 6.0100000e+00 0.0000000e+00 
6.4600000e+00 6.0300000e+00 0.0000000e+00 
6.4866667e+00 5.9700000e+00 0.0000000e+00 
6.4866667e+00 5.9900000e+00 0.0000000e+00 
6.4866667e+00 6.0100000e+00 0.0000000e+00 
6.4866667e+00 6.0300000e+00 0.0000000e+00 
6.5133333e+00 5.9700000e+00 0.0000000e+00 
6.5133333e+00 5.9900000e+00 0.0000000e+00 
6.5133333e+00 6.0100000e+00 0.0000000e+00 
6.5133333e+00 6.0300000e+00 0.0000000e+00 
6.5400000e+00 5.9700000e+00 0.0000000e+00 
6.5400000e+00 5.9900000e+00 0.0000000e+00 
6.5400000e+00 6.0100000e+00 0.0000000e+00 
6.5400000e+00 6.0300000e+00 0.0000000e+00 
6.5666667e+00 5.9700000e+00 0.0000000e+00 
6.5666667e+00 5.9900000e+00 0.0000000e+00 
6.5666667e+00 6.0100000e+00 0.0000000e+00 
6.5666667e+00 6.0300000e+00 0.0000000e+00 
6.5933333e+00 5.9700000e+00 0.0000000e+00 
6.5933333e+00 5.9900000e+00 0.0000000e+00 
6.5933333e+00 6.0100000e+00 0.0000000e+00 
6.5933333e+00 6.0300000e+00 0.0000000e+00 
6.6200000e+00 5.9700000e+00 0.0000000e+00 
6.6200000e+00 5.9900000e+00 0.0000000e+00 
6.6200000e+00 6.0100000e+00 0.0000000e+00 
6.6200000e+00 6.0300000e+00 0.0000000e+00 
6.6466667e+00 5.9700000e+00 0.0000000e+00 
6.6466667e+00 5.9900000e+00 0.0000000e+00 
6.6466667e+00 6.0100000e+00 0.0000000e+00 
6.6466667e+00 6.0300000e+00 0.0000000e+00 
6.6733333e+00 5.9700000e+00 0.0000000e+00 
6.6733333e+00 5.9900000e+00 0.0000000e+00 
6.6733333e+00 6.0100000e+00 0.0000000e+00 
6.6733333e+00 6.0300000e+00 0.0000000e+00 
6.7000000e+00 5.9700000e+00 0.0000000e+00 
6.7000000e+00 5.9900000e+00 0.0000000e+00 
6.7000000e+00 6.0100000e+00 0.0000000e+00 
6.7000000e+00 6.0300000e+00 0.0000000e+00 
6.7266667e+00 5.9700000e+00 0.0000000e+00 
6.7266667e+00 5.9900000e+00 0.0000000e+00 
6.7266667e+00 6.0100000e+00 0.0000000e+00 
6.7266667e+00 6.0300000e+00 0.0000000e+00 
6.7533333e+00 5.9700000e+00 0.0000000e+00 
6.7533333e+00 5.9900000e+00 0.0000000e+00 
6.7533333e+00 6.0100000e+00 0.0000000e+00 
6.7533333e+00 6.0300000e+00 0.0000000e+00 
6.7800000e+00 5.9700000e+00 0.0000000e+00 
6.7800000e+00 5.9900000e+00 0.0000000e+00 
6.7800000e+00 6.0100000e+00 0.0000000e+00 
6.7800000e+00 6.0300000e+00 0.0000000e+00 
6.8066667e+00 5.9700000e+00 0.0000000e+00 
6.8066667e+00 5.9900000e+00 0.0000000e+00 
6.8066667e+00 6.0100000e+00 0.0000000e+00 
6.8066667e+00 6.0300000e+00 0.0000000e+00 
6.8333333e+00 5.9700000e+00 0.0000000e+00 
6.8333333e+00 5.9900000e+00 0.0000000e+00 
6.8333333e+00 6.0100000e+00 0.0000000e+00 
6.8333333e+00 6.0300000e+00 0.0000000e+00 
6.8600000e+00 5.9700000e+00 0.0000000e+00 
6.8600000e+00 5.9900000e+00 0.0000000e+00 
6.8600000e+00 6.0100000e+00 0.0000000e+00 
6.8600000e+00 6.0300000e+00 0.0000000e+00 
6.8866667e+00 5.9700000e+00 0.0000000e+00 
6.8866667e+00 5.9900000e+00 0.0000000e+00 
6.8866667e+00 6.0100000e+00 0.0000000e+00 
6.8866667e+00 6.0300000e+00 0.0000000e+00 
6.9133333e+00 5.9700000e+00 0.0000000e+00 
6.9133333e+00 5.9900000e+00 0.0000000e+00 
6.9133333e+00 6.0100000e+00 0.0000000e+00 
6.9133333e+00 6.0300000e+00 0.0000000e+00 
6.9400000e+00 5.9700000e+00 0.0000000e+00 
6.9400000e+00 5.9900000e+00 0.0000000e+00 
6.9400000e+00 6.0100000e+00 0.0000000e+00 
6.9400000e+00 6.0300000e+00 0.0000000e+00 
6.9666667e+00 5.9700000e+00 0.0000000e+00 
6.9666667e+00 5.9900000e+00 0.0000000e+00 
6.9666667e+00 6.0100000e+00 0.0000000e+00 
6.9666667e+00 6.0300000e+00 0.0000000e+00 
6.9933333e+00 5.9700000e+00 0.0000000e+00 
6.9933333e+00 5.9900000e+00 0.0000000e+00 
6.9933333e+00 6.0100000e+00 0.0000000e+00 
6.9933333e+00 6.0300000e+00 0.0000000e+00 
7.0200000e+00 5.9700000e+00 0.0000000e+00 
7.0200000e+00 5.9900000e+00 0.0000000e+00 
[...]
POINT_DATA 604
FIELD FieldData 2
DISPLACEMENT 3 604  float
0.0000000e+00 0.0000000e+00 0.0000000e+00 
0.0000000e+00 0.0000000e+00 0.0000000e+00 
3.0081192e-04 1.8539068e-04 0.0000000e+00 
9.4519048e-05 1.2042415e-04 0.0000000e+00 
0.0000000e+00 0.0000000e+00 0.0000000e+00 
-9.7801441e-05 1.1890225e-04 0.0000000e+00 
6.0299752e-04 5.9428908e-04 0.0000000e+00 
1.9717198e-04 5.3776483e-04 0.0000000e+00 
0.0000000e+00 0.0000000e+00 0.0000000e+00 
-3.0500733e-04 1.8105856e-04 0.0000000e+00 
-2.0922347e-04 5.3309685e-04 0.0000000e+00 
8.9478353e-04 1.2852602e-03 0.0000000e+00 
-6.1717805e-04 5.8110646e-04 0.0000000e+00 
2.8734592e-04 1.2230454e-03 0.0000000e+00 
-3.1903766e-04 1.2131968e-03 0.0000000e+00 
-9.2978398e-04 1.2559169e-03 0.0000000e+00 
1.1727205e-03 2.2432769e-03 0.0000000e+00 
3.6827570e-04 2.1755719e-03 0.0000000e+00 
-4.3585705e-04 2.1589370e-03 0.0000000e+00 
-1.2445349e-03 2.1939943e-03 0.0000000e+00 
1.4344973e-03 3.4658090e-03 0.0000000e+00 
4.3672861e-04 3.3899502e-03 0.0000000e+00 
-5.6118701e-04 3.3644123e-03 0.0000000e+00 
-1.5641318e-03 3.3892983e-03 0.0000000e+00 
1.6778772e-03 4.9457493e-03 0.0000000e+00 
4.9054075e-04 4.8608222e-03 0.0000000e+00 
-6.9744050e-04 4.8251494e-03 0.0000000e+00 
-1.8909053e-03 4.8390375e-03 0.0000000e+00 
1.9007922e-03 6.6793311e-03 0.0000000e+00 
5.2739564e-04 6.5834015e-03 0.0000000e+00 
-8.4691816e-04 6.5357842e-03 0.0000000e+00 
-2.2269015e-03 6.5367401e-03 0.0000000e+00 
2.1011272e-03 8.6614556e-03 0.0000000e+00 
5.4558465e-04 8.5527077e-03 0.0000000e+00 
-1.0113150e-03 8.4914478e-03 0.0000000e+00 
-2.5743273e-03 8.4775841e-03 0.0000000e+00 
2.2772172e-03 1.0885647e-02 0.0000000e+00 
5.4310400e-04 1.0763469e-02 0.0000000e+00 
-1.1927377e-03 1.0687630e-02 0.0000000e+00 
-2.9350243e-03 1.0658458e-02 0.0000000e+00 
2.4271780e-03 1.3348733e-02 0.0000000e+00 
5.1818439e-04 1.3211064e-02 0.0000000e+00 
-1.3928844e-03 1.3119042e-02 0.0000000e+00 
-3.3107086e-03 1.3072394e-02 0.0000000e+00 
2.5495594e-03 1.6043810e-02 0.0000000e+00 
4.6924732e-04 1.5890275e-02 0.0000000e+00 
-1.6134368e-03 1.5781211e-02 0.0000000e+00 
-3.7031399e-03 1.5716843e-02 0.0000000e+00 
2.6427117e-03 1.8967780e-02 0.0000000e+00 
3.9476800e-04 1.8796476e-02 0.0000000e+00 
-1.8558522e-03 1.8668967e-02 0.0000000e+00 
-4.1137581e-03 1.8584868e-02 0.0000000e+00 
2.7054725e-03 2.2113773e-02 0.0000000e+00 
2.9340375e-04 2.1924516e-02 0.0000000e+00 
-2.1215930e-03 2.1777883e-02 0.0000000e+00 
-4.5440930e-03 2.1674001e-02 0.0000000e+00 
2.7363962e-03 2.5478794e-02 0.0000000e+00 
1.6385410e-04 2.5269837e-02 0.0000000e+00 
-2.4118779e-03 2.5102845e-02 0.0000000e+00 
-4.9953371e-03 2.4977326e-02 0.0000000e+00 
2.7345739e-03 2.9056013e-02 0.0000000e+00 
5.0082582e-06 2.8827349e-02 0.0000000e+00 
-2.7279559e-03 2.8639485e-02 0.0000000e+00 
-5.4688211e-03 2.8492455e-02 0.0000000e+00 
2.6987528e-03 3.2842537e-02 0.0000000e+00 
-1.8422421e-04 3.2592567e-02 0.0000000e+00 
-3.0708210e-03 3.2382753e-02 0.0000000e+00 
-5.9655025e-03 3.2212507e-02 0.0000000e+00 
2.6282610e-03 3.6831584e-02 0.0000000e+00 
-4.0473642e-04 3.6560466e-02 0.0000000e+00 
-3.4415226e-03 3.6328348e-02 0.0000000e+00 
-6.4865264e-03 3.6135176e-02 0.0000000e+00 
2.5220269e-03 4.1020365e-02 0.0000000e+00 
-6.5742339e-04 4.0726638e-02 0.0000000e+00 
-3.8408441e-03 4.0471283e-02 0.0000000e+00 
-7.0326276e-03 4.0253622e-02 0.0000000e+00 
2.3795997e-03 4.5402157e-02 0.0000000e+00 
-9.4297349e-04 4.5086129e-02 0.0000000e+00 
-4.2696476e-03 4.4807329e-02 0.0000000e+00 
-7.6047767e-03 4.4565618e-02 0.0000000e+00 
2.2000598e-03 4.9974266e-02 0.0000000e+00 
-1.2620917e-03 4.9634624e-02 0.0000000e+00 
-4.7285075e-03 4.9331557e-02 0.0000000e+00 
-8.2035197e-03 4.9064376e-02 0.0000000e+00 
1.9831478e-03 5.4730009e-02 0.0000000e+00 
-1.6152573e-03 5.4367167e-02 0.0000000e+00 
-5.2181228e-03 5.4039891e-02 0.0000000e+00 
-8.8296830e-03 5.3747760e-02 0.0000000e+00 
1.7283497e-03 5.9666347e-02 0.0000000e+00 
-2.0031732e-03 5.9279508e-02 0.0000000e+00 
-5.7391027e-03 5.8927405e-02 0.0000000e+00 
-9.4835945e-03 5.8609609e-02 0.0000000e+00 
1.4351540e-03 6.4778768e-02 0.0000000e+00 
-2.4259289e-03 6.4367287e-02 0.0000000e+00 
-6.2915437e-03 6.3989825e-02 0.0000000e+00 
-1.0165893e-02 6.3645582e-02 0.0000000e+00 
1.1035707e-03 7.0061251e-02 0.0000000e+00 
-2.8839467e-03 6.9625725e-02 0.0000000e+00 
-6.8760777e-03 6.9223131e-02 0.0000000e+00 
-1.0876971e-02 6.8853165e-02 0.0000000e+00 
7.3304312e-04 7.5511398e-02 0.0000000e+00 
-3.3775576e-03 7.5050787e-02 0.0000000e+00 
-7.4928357e-03 7.4622543e-02 0.0000000e+00 
-1.1616908e-02 7.4225731e-02 0.0000000e+00 
3.2375552e-04 8.1122736e-02 0.0000000e+00 
-3.9068332e-03 8.0637801e-02 0.0000000e+00 
-8.1421215e-03 8.0184127e-02 0.0000000e+00 
-1.2386188e-02 7.9761354e-02 0.0000000e+00 
-1.2470211e-04 8.6892948e-02 0.0000000e+00 
-4.4719514e-03 8.6382744e-02 0.0000000e+00 
-8.8239392e-03 8.5903255e-02 0.0000000e+00 
-1.3184712e-02 8.5453483e-02 0.0000000e+00 
-6.1196904e-04 9.2815635e-02 0.0000000e+00 
-5.0728492e-03 9.2281034e-02 0.0000000e+00 
-9.5384645e-03 9.1776053e-02 0.0000000e+00 
-1.4012824e-02 9.1300278e-02 0.0000000e+00 
-1.1383387e-03 9.8888574e-02 0.0000000e+00 
-5.7095757e-03 9.8328729e-02 0.0000000e+00 
-1.0285561e-02 9.7797972e-02 0.0000000e+00 
-1.4870272e-02 9.7295253e-02 0.0000000e+00 
-1.7033049e-03 1.0510545e-01 0.0000000e+00 
-6.3819322e-03 1.0452133e-01 0.0000000e+00 
-1.1065280e-02 1.0396521e-01 0.0000000e+00 
-1.5757288e-02 1.0343664e-01 0.0000000e+00 
-2.3070512e-03 1.1146412e-01 0.0000000e+00 
-7.0898485e-03 1.1085497e-01 0.0000000e+00 
-1.1877356e-02 1.1027330e-01 0.0000000e+00 
-1.6673481e-02 1.0971803e-01 0.0000000e+00 
-2.9489374e-03 1.1795836e-01 0.0000000e+00 
-7.8330013e-03 1.1732523e-01 0.0000000e+00 
-1.2721725e-02 1.1671852e-01 0.0000000e+00 
-1.7618978e-02 1.1613772e-01 0.0000000e+00 
-3.6290457e-03 1.2458612e-01 0.0000000e+00 
-8.6112114e-03 1.2392833e-01 0.0000000e+00 
-1.3598004e-02 1.2329647e-01 0.0000000e+00 
-1.8593261e-02 1.2268938e-01 0.0000000e+00 
-4.3466138e-03 1.3134125e-01 0.0000000e+00 
-9.4240411e-03 1.3065994e-01 0.0000000e+00 
-1.4506024e-02 1.3000350e-01 0.0000000e+00 
-1.9596359e-02 1.2937138e-01 0.0000000e+00 
-5.1016472e-03 1.3822177e-01 0.0000000e+00 
-1.0271205e-02 1.3751636e-01 0.0000000e+00 
-1.5445278e-02 1.3683530e-01 0.0000000e+00 
-2.0627657e-02 1.3617748e-01 0.0000000e+00 
-5.8932870e-03 1.4522162e-01 0.0000000e+00 
-1.1152135e-02 1.4449328e-01 0.0000000e+00 
-1.6415525e-02 1.4378837e-01 0.0000000e+00 
-2.1687114e-02 1.4310609e-01 0.0000000e+00 
-6.7211593e-03 1.5233847e-01 0.0000000e+00 
-1.2066612e-02 1.5158706e-01 0.0000000e+00 
-1.7416378e-02 1.5085838e-01 0.0000000e+00 
-2.2774039e-02 1.5015165e-01 0.0000000e+00 
-7.5848657e-03 1.5956847e-01 0.0000000e+00 
-1.3013833e-02 1.5879404e-01 0.0000000e+00 
-1.8447049e-02 1.5804173e-01 0.0000000e+00 
-2.3888176e-02 1.5731041e-01 0.0000000e+00 
-8.4834763e-03 1.6690629e-01 0.0000000e+00 
-1.3993316e-02 1.6611006e-01 0.0000000e+00 
-1.9507329e-02 1.6533498e-01 0.0000000e+00 
-2.5029111e-02 1.6458042e-01 0.0000000e+00 
-9.4168064e-03 1.7435016e-01 0.0000000e+00 
-1.5004600e-02 1.7353171e-01 0.0000000e+00 
-2.0596472e-02 1.7273396e-01 0.0000000e+00 
-2.6195989e-02 1.7195567e-01 0.0000000e+00 
-1.0383782e-02 1.8189433e-01 0.0000000e+00 
-1.6046925e-02 1.8105498e-01 0.0000000e+00 
-2.1714023e-02 1.8023535e-01 0.0000000e+00 
-2.7388601e-02 1.7943478e-01 0.0000000e+00 
-1.1384136e-02 1.8953708e-01 0.0000000e+00 
-1.7119741e-02 1.8867647e-01 0.0000000e+00 
-2.2859196e-02 1.8783514e-01 0.0000000e+00 
-2.8605995e-02 1.8701183e-01 0.0000000e+00 
-1.2416702e-02 1.9727276e-01 0.0000000e+00 
-1.8222232e-02 1.9639226e-01 0.0000000e+00 
-2.4031479e-02 1.9553007e-01 0.0000000e+00 
-2.9847894e-02 1.9468551e-01 0.0000000e+00 
-1.3481161e-02 2.0509974e-01 0.0000000e+00 
-1.9353791e-02 2.0419904e-01 0.0000000e+00 
-2.5230023e-02 2.0331622e-01 0.0000000e+00 
-3.1113273e-02 2.0245000e-01 0.0000000e+00 
-1.4576283e-02 2.1301248e-01 0.0000000e+00 
-2.0513542e-02 2.1209297e-01 0.0000000e+00 
-2.6454261e-02 2.1119039e-01 0.0000000e+00 
-3.2401811e-02 2.1030406e-01 0.0000000e+00 
-1.5701700e-02 2.2100942e-01 0.0000000e+00 
-2.1700826e-02 2.2007084e-01 0.0000000e+00 
-2.7703288e-02 2.1914878e-01 0.0000000e+00 
-3.3712423e-02 2.1824195e-01 0.0000000e+00 
-1.6856128e-02 2.2908514e-01 0.0000000e+00 
-2.2914719e-02 2.2812891e-01 0.0000000e+00 
-2.8976495e-02 2.2718826e-01 0.0000000e+00 
-3.5044747e-02 2.2626251e-01 0.0000000e+00 
-1.8039157e-02 2.3723814e-01 0.0000000e+00 
-2.4154517e-02 2.3626404e-01 0.0000000e+00 
-3.0272929e-02 2.3530512e-01 0.0000000e+00 
-3.6397649e-02 2.3436010e-01 0.0000000e+00 
-1.9249462e-02 2.4546313e-01 0.0000000e+00 
-2.5419255e-02 2.4447258e-01 0.0000000e+00 
-3.1591943e-02 2.4349632e-01 0.0000000e+00 
-3.7770733e-02 2.4253363e-01 0.0000000e+00 
-2.0486610e-02 2.5375867e-01 0.0000000e+00 
-2.6708190e-02 2.5275152e-01 0.0000000e+00 
-3.2932535e-02 2.5175822e-01 0.0000000e+00 
-3.9162842e-02 2.5077755e-01 0.0000000e+00 
-2.1749256e-02 2.6211957e-01 0.0000000e+00 
-2.8020294e-02 2.6109723e-01 0.0000000e+00 
-3.4294052e-02 2.6008796e-01 0.0000000e+00 
-4.0573573e-02 2.5909086e-01 0.0000000e+00 
-2.3036638e-02 2.7054410e-01 0.0000000e+00 
-2.9354934e-02 2.6950673e-01 0.0000000e+00 
-3.5675673e-02 2.6848187e-01 0.0000000e+00 
-4.2001802e-02 2.6746866e-01 0.0000000e+00 
-2.4347967e-02 2.7902913e-01 0.0000000e+00 
-3.0710969e-02 2.7797709e-01 0.0000000e+00 
-3.7076274e-02 2.7693707e-01 0.0000000e+00 
-4.3446915e-02 2.7590787e-01 0.0000000e+00 
-2.5681963e-02 2.8757022e-01 0.0000000e+00 
-3.2087555e-02 2.8650490e-01 0.0000000e+00 
-3.8495320e-02 2.8545078e-01 0.0000000e+00 
-4.4908217e-02 2.8440716e-01 0.0000000e+00 
-2.7038152e-02 2.9616616e-01 0.0000000e+00 
-3.3483933e-02 2.9508743e-01 0.0000000e+00 
-3.9931740e-02 2.9401955e-01 0.0000000e+00 
-4.6384493e-02 2.9296127e-01 0.0000000e+00 
-2.8415155e-02 3.0481210e-01 0.0000000e+00 
-3.4899059e-02 3.0372141e-01 0.0000000e+00 
-4.1384827e-02 3.0264073e-01 0.0000000e+00 
-4.7875327e-02 3.0156941e-01 0.0000000e+00 
-2.9812470e-02 3.1350694e-01 0.0000000e+00 
-3.6332142e-02 3.1240415e-01 0.0000000e+00 
-4.2853535e-02 3.1131106e-01 0.0000000e+00 
-4.9379472e-02 3.1022643e-01 0.0000000e+00 
-3.1228692e-02 3.2224594e-01 0.0000000e+00 
-3.7782146e-02 3.2113251e-01 0.0000000e+00 
-4.4337160e-02 3.2002797e-01 0.0000000e+00 
-5.0896505e-02 3.1893165e-01 0.0000000e+00 
-3.2663320e-02 3.3102809e-01 0.0000000e+00 
-3.9248278e-02 3.2990389e-01 0.0000000e+00 
-4.5834653e-02 3.2878828e-01 0.0000000e+00 
-5.2425171e-02 3.2768001e-01 0.0000000e+00 
-3.4114951e-02 3.3984879e-01 0.0000000e+00 
-4.0729503e-02 3.3871526e-01 0.0000000e+00 
-4.7345315e-02 3.3758952e-01 0.0000000e+00 
-5.3965057e-02 3.3647094e-01 0.0000000e+00 
-3.5583084e-02 3.4870709e-01 0.0000000e+00 
-4.2225033e-02 3.4756411e-01 0.0000000e+00 
-4.8868102e-02 3.4642864e-01 0.0000000e+00 
-5.5514910e-02 3.4529946e-01 0.0000000e+00 
-3.7066327e-02 3.5759854e-01 0.0000000e+00 
-4.3733842e-02 3.5644754e-01 0.0000000e+00 
-5.0402324e-02 3.5530326e-01 0.0000000e+00 
-5.7074337e-02 3.5416511e-01 0.0000000e+00 
-3.8564185e-02 3.6652229e-01 0.0000000e+00 
-4.5255154e-02 3.6536314e-01 0.0000000e+00 
-5.1946952e-02 3.6421044e-01 0.0000000e+00 
-5.8642090e-02 3.6306303e-01 0.0000000e+00 
-4.0075285e-02 3.7547403e-01 0.0000000e+00 
-4.6787958e-02 3.7430811e-01 0.0000000e+00 
-5.3501311e-02 3.7314792e-01 0.0000000e+00 
-6.0217798e-02 3.7199285e-01 0.0000000e+00 
-4.1599156e-02 3.8445298e-01 0.0000000e+00 
-4.8331489e-02 3.8328020e-01 0.0000000e+00 
-5.5064378e-02 3.8211284e-01 0.0000000e+00 
-6.1800245e-02 3.8094984e-01 0.0000000e+00 
-4.3134458e-02 3.9345495e-01 0.0000000e+00 
-4.9884730e-02 3.9227664e-01 0.0000000e+00 
-5.6635524e-02 3.9110314e-01 0.0000000e+00 
-6.3389105e-02 3.8993371e-01 0.0000000e+00 
-4.4680450e-02 4.0247894e-01 0.0000000e+00 
-5.1447060e-02 4.0129525e-01 0.0000000e+00 
-5.8213956e-02 4.0011596e-01 0.0000000e+00 
-6.4983271e-02 3.9894040e-01 0.0000000e+00 
-4.6236369e-02 4.1152269e-01 0.0000000e+00 
-5.3017420e-02 4.1033394e-01 0.0000000e+00 
-5.9798635e-02 4.0914925e-01 0.0000000e+00 
-6.6582215e-02 4.0796762e-01 0.0000000e+00 
-4.7801036e-02 4.2058278e-01 0.0000000e+00 
-5.4595047e-02 4.1939021e-01 0.0000000e+00 
-6.1389127e-02 4.1820107e-01 0.0000000e+00 
-6.8185394e-02 4.1701486e-01 0.0000000e+00 
-4.9374053e-02 4.2965872e-01 0.0000000e+00 
-5.6179287e-02 4.2846218e-01 0.0000000e+00 
-6.2984475e-02 4.2726887e-01 0.0000000e+00 
-6.9791669e-02 4.2607776e-01 0.0000000e+00 
-5.0954189e-02 4.3874677e-01 0.0000000e+00 
-5.7769235e-02 4.3754752e-01 0.0000000e+00 
-6.4584117e-02 4.3635085e-01 0.0000000e+00 
-7.1400832e-02 4.3515633e-01 0.0000000e+00 
-5.2541054e-02 4.4784654e-01 0.0000000e+00 
-5.9364248e-02 4.4664440e-01 0.0000000e+00 
-6.6187174e-02 4.4544466e-01 0.0000000e+00 
-7.3011756e-02 4.4424636e-01 0.0000000e+00 
-5.4133448e-02 4.5695446e-01 0.0000000e+00 
-6.0963474e-02 4.5575064e-01 0.0000000e+00 
-6.7793126e-02 4.5454861e-01 0.0000000e+00 
-7.4624271e-02 4.5334799e-01 0.0000000e+00 
-5.5731012e-02 4.6607023e-01 0.0000000e+00 
-6.2566309e-02 4.6486454e-01 0.0000000e+00 
-6.9401138e-02 4.6366048e-01 0.0000000e+00 
-7.6237287e-02 4.6245714e-01 0.0000000e+00 
-5.7332597e-02 4.7519046e-01 0.0000000e+00 
-6.4171947e-02 4.7398405e-01 0.0000000e+00 
-7.1010732e-02 4.7277871e-01 0.0000000e+00 
-7.7850686e-02 4.7157408e-01 0.0000000e+00 
-5.8937880e-02 4.8431495e-01 0.0000000e+00 
-6.5779826e-02 4.8310762e-01 0.0000000e+00 
-7.2621122e-02 4.8190121e-01 0.0000000e+00 
-7.9463421e-02 4.8069487e-01 0.0000000e+00 
-6.0545765e-02 4.9344049e-01 0.0000000e+00 
-6.7389189e-02 4.9223334e-01 0.0000000e+00 
-7.4231876e-02 4.9102658e-01 0.0000000e+00 
-8.1075428e-02 4.8981989e-01 0.0000000e+00 
-6.2155967e-02 5.0256696e-01 0.0000000e+00 
-6.8999519e-02 5.0135977e-01 0.0000000e+00 
-7.5842262e-02 5.0015284e-01 0.0000000e+00 
-8.2685704e-02 4.9894537e-01 0.0000000e+00 
-6.3767446e-02 5.1169135e-01 0.0000000e+00 
-7.0610113e-02 5.1048516e-01 0.0000000e+00 
-7.7451891e-02 5.0927873e-01 0.0000000e+00 
-8.4294242e-02 5.0807179e-01 0.0000000e+00 
-6.5379974e-02 5.2081365e-01 0.0000000e+00 
-7.2220496e-02 5.1960822e-01 0.0000000e+00 
-7.9060079e-02 5.1840242e-01 0.0000000e+00 
-8.5900104e-02 5.1719556e-01 0.0000000e+00 
-6.6992576e-02 5.2993100e-01 0.0000000e+00 
-7.3829998e-02 5.2872730e-01 0.0000000e+00 
-8.0666504e-02 5.2752285e-01 0.0000000e+00 
-8.7503347e-02 5.2631726e-01 0.0000000e+00 
-6.8604817e-02 5.3904322e-01 0.0000000e+00 
-7.5438294e-02 5.3784122e-01 0.0000000e+00 
-8.2270721e-02 5.3663824e-01 0.0000000e+00 
-8.9103190e-02 5.3543397e-01 0.0000000e+00 
-7.0216245e-02 5.4814912e-01 0.0000000e+00 
-7.7044707e-02 5.4694890e-01 0.0000000e+00 
-8.3872074e-02 5.4574754e-01 0.0000000e+00 
-9.0699462e-02 5.4454447e-01 0.0000000e+00 
-7.1826085e-02 5.5724660e-01 0.0000000e+00 
-7.8648837e-02 5.5604900e-01 0.0000000e+00 
-8.5470472e-02 5.5484989e-01 0.0000000e+00 
-9.2292048e-02 5.5364911e-01 0.0000000e+00 
-7.3434243e-02 5.6633595e-01 0.0000000e+00 
-8.0250380e-02 5.6514066e-01 0.0000000e+00 
-8.7065371e-02 5.6394382e-01 0.0000000e+00 
-9.3880165e-02 5.6274485e-01 0.0000000e+00 
-7.5039926e-02 5.7541486e-01 0.0000000e+00 
-8.1848841e-02 5.7422271e-01 0.0000000e+00 
-8.8656571e-02 5.7302864e-01 0.0000000e+00 
-9.5464031e-02 5.7183254e-01 0.0000000e+00 
-7.6643072e-02 5.8448374e-01 0.0000000e+00 
-8.3443947e-02 5.8329438e-01 0.0000000e+00 
-9.0243624e-02 5.8210308e-01 0.0000000e+00 
-9.7042902e-02 5.8090933e-01 0.0000000e+00 
-7.8242934e-02 5.9354043e-01 0.0000000e+00 
-8.5035274e-02 5.9235464e-01 0.0000000e+00 
-9.1826383e-02 5.9116657e-01 0.0000000e+00 
-9.8617039e-02 5.8997618e-01 0.0000000e+00 
-7.9839501e-02 6.0258548e-01 0.0000000e+00 
-8.6622597e-02 6.0140289e-01 0.0000000e+00 
-9.3404463e-02 6.0021802e-01 0.0000000e+00 
-1.0018575e-01 5.9903043e-01 0.0000000e+00 
-8.1432087e-02 6.1161691e-01 0.0000000e+00 
-8.8205552e-02 6.1043823e-01 0.0000000e+00 
-9.4977764e-02 6.0925697e-01 0.0000000e+00 
-1.0174936e-01 6.0807313e-01 0.0000000e+00 
-8.3020732e-02 6.2063537e-01 0.0000000e+00 
-8.9783967e-02 6.1946019e-01 0.0000000e+00 
-9.6545963e-02 6.1828248e-01 0.0000000e+00 
-1.0330722e-01 6.1710182e-01 0.0000000e+00 
-8.4604809e-02 6.2963905e-01 0.0000000e+00 
-9.1357535e-02 6.2846805e-01 0.0000000e+00 
-9.8109007e-02 6.2729424e-01 0.0000000e+00 
-1.0485972e-01 6.2611765e-01 0.0000000e+00 
-8.6184408e-02 6.3862872e-01 0.0000000e+00 
-9.2926135e-02 6.3746147e-01 0.0000000e+00 
-9.9666632e-02 6.3629146e-01 0.0000000e+00 
-1.0640626e-01 6.3511836e-01 0.0000000e+00 
-8.7758962e-02 6.4760276e-01 0.0000000e+00 
-9.4489518e-02 6.4643986e-01 0.0000000e+00 
-1.0121883e-01 6.4527398e-01 0.0000000e+00 
-1.0794727e-01 6.4410518e-01 0.0000000e+00 
-8.9328620e-02 6.5656202e-01 0.0000000e+00 
-9.6047608e-02 6.5540305e-01 0.0000000e+00 
-1.0276540e-01 6.5424113e-01 0.0000000e+00 
-1.0948223e-01 6.5307605e-01 0.0000000e+00 
-9.0892881e-02 6.6550506e-01 0.0000000e+00 
-9.7600191e-02 6.6435054e-01 0.0000000e+00 
-1.0430638e-01 6.6319294e-01 0.0000000e+00 
-1.1101161e-01 6.6203226e-01 0.0000000e+00 
-9.2451738e-02 6.7443260e-01 0.0000000e+00 
-9.9147331e-02 6.7328226e-01 0.0000000e+00 
-1.0584176e-01 6.7212884e-01 0.0000000e+00 
-1.1253505e-01 6.7097237e-01 0.0000000e+00 
-9.4005151e-02 6.8334455e-01 0.0000000e+00 
-1.0068880e-01 6.8219821e-01 0.0000000e+00 
-1.0737133e-01 6.8104884e-01 0.0000000e+00 
-1.1405274e-01 6.7989627e-01 0.0000000e+00 
-9.5552790e-02 6.9224006e-01 0.0000000e+00 
-1.0222461e-01 6.9109817e-01 0.0000000e+00 
-1.0889533e-01 6.8995310e-01 0.0000000e+00 
-1.1556497e-01 6.8880503e-01 0.0000000e+00 
-9.7094942e-02 7.0112027e-01 0.0000000e+00 
-1.0375483e-01 6.9998233e-01 0.0000000e+00 
-1.1041369e-01 6.9884134e-01 0.0000000e+00 
-1.1707138e-01 6.9769718e-01 0.0000000e+00 
-9.8631250e-02 7.0998415e-01 0.0000000e+00 
-1.0527940e-01 7.0885058e-01 0.0000000e+00 
-1.1192652e-01 7.0771384e-01 0.0000000e+00 
-1.1857251e-01 7.0657415e-01 0.0000000e+00 
-1.0016203e-01 7.1883294e-01 0.0000000e+00 
-1.0679841e-01 7.1770322e-01 0.0000000e+00 
-1.1343382e-01 7.1657049e-01 0.0000000e+00 
-1.2006804e-01 7.1543467e-01 0.0000000e+00 
-1.0168697e-01 7.2766572e-01 0.0000000e+00 
-1.0831184e-01 7.2654025e-01 0.0000000e+00 
-1.1493575e-01 7.2541166e-01 0.0000000e+00 
-1.2155852e-01 7.2428020e-01 0.0000000e+00 
-1.0320642e-01 7.3648381e-01 0.0000000e+00 
-1.0981982e-01 7.3536205e-01 0.0000000e+00 
-1.1643236e-01 7.3423735e-01 0.0000000e+00 
-1.2304369e-01 7.3310967e-01 0.0000000e+00 
-1.0472009e-01 7.4528644e-01 0.0000000e+00 
-1.1132239e-01 7.4416874e-01 0.0000000e+00 
-1.1792382e-01 7.4304802e-01 0.0000000e+00 
-1.2452411e-01 7.4192456e-01 0.0000000e+00 
-1.0622840e-01 7.5407499e-01 0.0000000e+00 
-1.1281969e-01 7.5296080e-01 0.0000000e+00 
-1.1941022e-01 7.5184380e-01 0.0000000e+00 
-1.2599954e-01 7.5072396e-01 0.0000000e+00 
-1.0773108e-01 7.6284879e-01 0.0000000e+00 
-1.1431180e-01 7.6173845e-01 0.0000000e+00 
-1.2089176e-01 7.6062522e-01 0.0000000e+00 
-1.2747058e-01 7.5950940e-01 0.0000000e+00 
-1.0922858e-01 7.7160931e-01 0.0000000e+00 
-1.1579891e-01 7.7050224e-01 0.0000000e+00 
-1.2236856e-01 7.6939251e-01 0.0000000e+00 
-1.2893703e-01 7.6828013e-01 0.0000000e+00 
-1.1072069e-01 7.8035598e-01 0.0000000e+00 
-1.1728110e-01 7.7925249e-01 0.0000000e+00 
-1.2384085e-01 7.7814628e-01 0.0000000e+00 
-1.3039949e-01 7.7703767e-01 0.0000000e+00 
-1.1220787e-01 7.8909032e-01 0.0000000e+00 
-1.1875859e-01 7.8798984e-01 0.0000000e+00 
-1.2530876e-01 7.8688685e-01 0.0000000e+00 
-1.3185779e-01 7.8578145e-01 0.0000000e+00 
-1.1368996e-01 7.9781184e-01 0.0000000e+00 
-1.2023149e-01 7.9671463e-01 0.0000000e+00 
-1.2677255e-01 7.9561492e-01 0.0000000e+00 
-1.3331255e-01 7.9451297e-01 0.0000000e+00 
-1.1516729e-01 8.0652192e-01 0.0000000e+00 
-1.2170013e-01 8.0542758e-01 0.0000000e+00 
-1.2823246e-01 8.0433088e-01 0.0000000e+00 
-1.3476370e-01 8.0323207e-01 0.0000000e+00 
-1.1664012e-01 8.1522114e-01 0.0000000e+00 
-1.2316456e-01 8.1412935e-01 0.0000000e+00 