# vtk DataFile Version 4.0
vtk output
ASCII
DATASET UNSTRUCTURED_GRID
POINTS 604 float
5.5000000e+00 5.9700000e+00 0.0000000e+00 
5.5000000e+00 5.9900000e+00 0.0000000e+00 
5.5266667e+00 5.9700000e+00 0.0000000e+00 
5.5266667e+00 5.9900000e+00 0.0000000e+00 
5.5000000e+00 6.0100000e+00 0.0000000e+00 
5.5266667e+00 6.0100000e+00 0.0000000e+00 
5.5533333e+00 5.9700000e+00 0.0000000e+00 
5.5533333e+00 5.9900000e+00 0.0000000e+00 
5.5000000e+00 6.0300000e+00 0.0000000e+00 
5.5266667e+00 6.0300000e+00 0.0000000e+00 
5.5533333e+00 6.0100000e+00 0.0000000e+00 
5.5800000e+00 5.9700000e+00 0.0000000e+00 
5.5533333e+00 6.0300000e+00 0.0000000e+00 
5.5800000e+00 5.9900000e+00 0.0000000e+00 
5.5800000e+00 6.0100000e+00 0.0000000e+00 
5.5800000e+00 6.0300000e+00 0.0000000e+00 
5.6066667e+00 5.9700000e+00 0.0000000e+00 
5.6066667e+00 5.9900000e+00 0.0000000e+00 
5.6066667e+00 6.0100000e+00 0.0000000e+00 
5.6066667e+00 6.0300000e+00 0.0000000e+00 
5.6333333e+00 5.9700000e+00 0.0000000e+00 
5.6333333e+00 5.9900000e+00 0.0000000e+00 
5.6333333e+00 6.0100000e+00 0.0000000e+00 
5.6333333e+00 6.0300000e+00 0.0000000e+00 
5.6600000e+00 5.9700000e+00 0.0000000e+00 
5.6600000e+00 5.9900000e+00 0.0000000e+00 
5.6600000e+00 6.0100000e+00 0.0000000e+00 
5.6600000e+00 6.0300000e+00 0.0000000e+00 
5.6866667e+00 5.9700000e+00 0.0000000e+00 
5.6866667e+00 5.9900000e+00 0.0000000e+00 
5.6866667e+00 6.0100000e+00 0.0000000e+00 
5.6866667e+00 6.0300000e+00 0.0000000e+00 
5.7133333e+00 5.9700000e+00 0.0000000e+00 
5.7133333e+00 5.9900000e+00 0.0000000e+00 
5.7133333e+00 6.0100000e+00 0.0000000e+00 
5.7133333e+00 6.0300000e+00 0.0000000e+00 
5.7400000e+00 5.9700000e+00 0.0000000e+00 
5.7400000e+00 5.9900000e+00 0.0000000e+00 
5.7400000e+00 6.0100000e+00 0.0000000e+00 
5.7400000e+00 6.0300000e+00 0.0000000e+00 
5.7666667e+00 5.9700000e+00 0.0000000e+00 
5.7666667e+00 5.9900000e+00 0.0000000e+00 
5.7666667e+00 6.0100000e+00 0.0000000e+00 
5.7666667e+00 6.0300000e+00 0.0000000e+00 
5.7933333e+00 5.9700000e+00 0.0000000e+00 
5.7933333e+00 5.9900000e+00 0.0000000e+00 
5.7933333e+00 6.0100000e+00 0.0000000e+00 
5.7933333e+00 6.0300000e+00 0.0000000e+00 
5.8200000e+00 5.9700000e+00 0.0000000e+00 
5.8200000e+00 5.9900000e+00 0.0000000e+00 
5.8200000e+00 6.0100000e+00 0.0000000e+00 
5.8200000e+00 6.0300000e+00 0.0000000e+00 
5.8466667e+00 5.9700000e+00 0.0000000e+00 
5.8466667e+00 5.9900000e+00 0.0000000e+00 
5.8466667e+00 6.0100000e+00 0.0000000e+00 
5.8466667e+00 6.0300000e+00 0.0000000e+00 
5.8733333e+00 5.9700000e+00 0.0000000e+00 
5.8733333e+00 5.9900000e+00 0.0000000e+00 
5.8733333e+00 6.0100000e+00 0.0000000e+00 
5.8733333e+00 6.0300000e+00 0.0000000e+00 
5.9000000e+00 5.9700000e+00 0.0000000e+00 
5.9000000e+00 5.9900000e+00 0.0000000e+00 
5.9000000e+00 6.0100000e+00 0.0000000e+00 
5.9000000e+00 6.0300000e+00 0.0000000e+00 
5.9266667e+00 5.9700000e+00 0.0000000e+00 
5.9266667e+00 5.9900000e+00 0.0000000e+00 
5.9266667e+00 6.0100000e+00 0.0000000e+00 
5.9266667e+00 6.0300000e+00 0.0000000e+00 
5.9533333e+00 5.9700000e+00 0.0000000e+00 
5.9533333e+00 5.9900000e+00 0.0000000e+00 
5.9533333e+00 6.0100000e+00 0.0000000e+00 
5.9533333e+00 6.0300000e+00 0.0000000e+00 
5.9800000e+00 5.9700000e+00 0.0000000e+00 
5.9800000e+00 5.9900000e+00 0.0000000e+00 
5.9800000e+00 6.0100000e+00 0.0000000e+00 
5.9800000e+00 6.0300000e+00 0.0000000e+00 
6.0066667e+00 5.9700000e+00 0.0000000e+00 
6.0066667e+00 5.9900000e+00 0.0000000e+00 
6.0066667e+00 6.0100000e+00 0.0000000e+00 
6.0066667e+00 6.0300000e+00 0.0000000e+00 
6.0333333e+00 5.9700000e+00 0.0000000e+00 
6.0333333e+00 5.9900000e+00 0.0000000e+00 
6.0333333e+00 6.0100000e+00 0.0000000e+00 
6.0333333e+00 6.0300000e+00 0.0000000e+00 
6.0600000e+00 5.9700000e+00 0.0000000e+00 
6.0600000e+00 5.9900000e+00 0.0000000e+00 
6.0600000e+00 6.0100000e+00 0.0000000e+00 
6.0600000e+00 6.0300000e+00 0.0000000e+00 
6.0866667e+00 5.9700000e+00 0.0000000e+00 
6.0866667e+00 5.9900000e+00 0.0000000e+00 
6.0866667e+00 6.0100000e+00 0.0000000e+00 
6.0866667e+00 6.0300000e+00 0.0000000e+00 
6.1133333e+00 5.9700000e+00 0.0000000e+00 
6.1133333e+00 5.9900000e+00 0.0000000e+00 
6.1133333e+00 6.0100000e+00 0.0000000e+00 
6.1133333e+00 6.0300000e+00 0.0000000e+00 
6.1400000e+00 5.9700000e+00 0.0000000e+00 
6.1400000e+00 5.9900000e+00 0.0000000e+00 
6.1400000e+00 6.0100000e+00 0.0000000e+00 
6.1400000e+00 6.0300000e+00 0.0000000e+00 
6.1666667e+00 5.9700000e+00 0.0000000e+00 
6.1666667e+00 5.9900000e+00 0.0000000e+00 
6.1666667e+00 6.0100000e+00 0.0000000e+00 
6.1666667e+00 6.0300000e+00 0.0000000e+00 
6.1933333e+00 5.9700000e+00 0.0000000e+00 
6.1933333e+00 5.9900000e+00 0.0000000e+00 
6.1933333e+00 6.0100000e+00 0.0000000e+00 
6.1933333e+00 6.0300000e+00 0.0000000e+00 
6.2200000e+00 5.9700000e+00 0.0000000e+00 
6.2200000e+00 5.9900000e+00 0.0000000e+00 
6.2200000e+00 6.0100000e+00 0.0000000e+00 
6.2200000e+00 6.0300000e+00 0.0000000e+00 
6.2466667e+00 5.9700000e+00 0.0000000e+00 
6.2466667e+00 5.9900000e+00 0.0000000e+00 
6.2466667e+00 6.0100000e+00 0.0000000e+00 
6.2466667e+00 6.0300000e+00 0.0000000e+00 
6.2733333e+00 5.9700000e+00 0.0000000e+00 
6.2733333e+00 5.9900000e+00 0.0000000e+00 
6.2733333e+00 6.0100000e+00 0.0000000e+00 
6.2733333e+00 6.0300000e+00 0.0000000e+00 
6.3000000e+00 5.9700000e+00 0.0000000e+00 
6.3000000e+00 5.9900000e+00 0.0000000e+00 
6.3000000e+00 6.0100000e+00 0.0000000e+00 
6.3000000e+00 6.0300000e+00 0.0000000e+00 
6.3266667e+00 5.9700000e+00 0.0000000e+00 
6.3266667e+00 5.9900000e+00 0.0000000e+00 
6.3266667e+00 6.0100000e+00 0.0000000e+00 
6.3266667e+00 6.0300000e+00 0.0000000e+00 
6.3533333e+00 5.9700000e+00 0.0000000e+00 
6.3533333e+00 5.9900000e+00 0.0000000e+00 
6.3533333e+00 6.0100000e+00 0.0000000e+00 
6.3533333e+00 6.0300000e+00 0.0000000e+00 
6.3800000e+00 5.9700000e+00 0.0000000e+00 
6.3800000e+00 5.9900000e+00 0.0000000e+00 
6.3800000e+00 6.0100000e+00 0.0000000e+00 
6.3800000e+00 6.0300000e+00 0.0000000e+00 
6.4066667e+00 5.9700000e+00 0.0000000e+00 
6.4066667e+00 5.9900000e+00 0.0000000e+00 
6.4066667e+00 6.0100000e+00 0.0000000e+00 
6.4066667e+00 6.0300000e+00 0.0000000e+00 
6.4333333e+00 5.9700000e+00 0.0000000e+00 
6.4333333e+00 5.9900000e+00 0.0000000e+00 
6.4333333e+00 6.0100000e+00 0.0000000e+00 
6.4333333e+00 6.0300000e+00 0.0000000e+00 
6.4600000e+00 5.9700000e+00 0.0000000e+00 
6.4600000e+00 5.9900000e+00 0.0000000e+00 
6.4600000e+00 6.0100000e+00 0.0000000e+00 
6.4600000e+00 6.0300000e+00 0.0000000e+00 
6.4866667e+00 5.9700000e+00 0.0000000e+00 
6.4866667e+00 5.9900000e+00 0.0000000e+00 
6.4866667e+00 6.0100000e+00 0.0000000e+00 
6.4866667e+00 6.0300000e+00 0.0000000e+00 
6.5133333e+00 5.9700000e+00 0.0000000e+00 
6.5133333e+00 5.9900000e+00 0.0000000e+00 
6.5133333e+00 6.0100000e+00 0.0000000e+00 
6.5133333e+00 6.0300000e+00 0.0000000e+00 
6.5400000e+00 5.9700000e+00 0.0000000e+00 
6.5400000e+00 5.9900000e+00 0.0000000e+00 
6.5400000e+00 6.0100000e+00 0.0000000e+00 
6.5400000e+00 6.0300000e+00 0.0000000e+00 
6.5666667e+00 5.9700000e+00 0.0000000e+00 
6.5666667e+00 5.9900000e+00 0.0000000e+00 
6.5666667e+00 6.0100000e+00 0.0000000e+00 
6.5666667e+00 6.0300000e+00 0.0000000e+00 
6.5933333e+00 5.9700000e+00 0.0000000e+00 
6.5933333e+00 5.9900000e+00 0.0000000e+00 
6.5933333e+00 6.0100000e+00 0.0000000e+00 
6.5933333e+00 6.0300000e+00 0.0000000e+00 
6.6200000e+00 5.9700000e+00 0.0000000e+00 
6.6200000e+00 5.9900000e+00 0.0000000e+00 
6.6200000e+00 6.0100000e+00 0.0000000e+00 
6.6200000e+00 6.0300000e+00 0.0000000e+00 
6.6466667e+00 5.9700000e+00 0.0000000e+00 
6.6466667e+00 5.9900000e+00 0.0000000e+00 
6.6466667e+00 6.0100000e+00 0.0000000e+00 
6.6466667e+00 6.0300000e+00 0.0000000e+00 
6.6733333e+00 5.9700000e+00 0.0000000e+00 
6.6733333e+00 5.9900000e+00 0.0000000e+00 
6.6733333e+00 6.0100000e+00 0.0000000e+00 
6.6733333e+00 6.0300000e+00 0.0000000e+00 
6.7000000e+00 5.9700000e+00 0.0000000e+00 
6.7000000e+00 5.9900000e+00 0.0000000e+00 
6.7000000e+00 6.0100000e+00 0.0000000e+00 
6.7000000e+00 6.0300000e+00 0.0000000e+00 
6.7266667e+00 5.9700000e+00 0.0000000e+00 
6.7266667e+00 5.9900000e+00 0.0000000e+00 
6.7266667e+00 6.0100000e+00 0.0000000e+00 
6.7266667e+00 6.0300000e+00 0.0000000e+00 
6.7533333e+00 5.9700000e+00 0.0000000e+00 
6.7533333e+00 5.9900000e+00 0.0000000e+00 
6.7533333e+00 6.0100000e+00 0.0000000e+00 
6.7533333e+00 6.0300000e+00 0.0000000e+00 
6.7800000e+00 5.9700000e+00 0.0000000e+00 
6.7800000e+00 5.9900000e+00 0.0000000e+00 
6.7800000e+00 6.0100000e+00 0.0000000e+00 
6.7800000e+00 6.0300000e+00 0.0000000e+00 
6.8066667e+00 5.9700000e+00 0.0000000e+00 
6.8066667e+00 5.9900000e+00 0.0000000e+00 
6.8066667e+00 6.0100000e+00 0.0000000e+00 
6.8066667e+00 6.0300000e+00 0.0000000e+00 
6.8333333e+00 5.9700000e+00 0.0000000e+00 
6.8333333e+00 5.9900000e+00 0.0000000e+00 
6.8333333e+00 6.0100000e+00 0.0000000e+00 
6.8333333e+00 6.0300000e+00 0.0000000e+00 
6.8600000e+00 5.9700000e+00 0.0000000e+00 
6.8600000e+00 5.9900000e+00 0.0000000e+00 
6.8600000e+00 6.0100000e+00 0.0000000e+00 
6.8600000e+00 6.0300000e+00 0.0000000e+00 
6.8866667e+00 5.9700000e+00 0.0000000e+00 
6.8866667e+00 5.9900000e+00 0.0000000e+00 
6.8866667e+00 6.0100000e+00 0.0000000e+00 
6.8866667e+00 6.0300000e+00 0.0000000e+00 
6.9133333e+00 5.9700000e+00 0.0000000e+00 
6.9133333e+00 5.9900000e+00 0.0000000e+00 
6.9133333e+00 6.0100000e+00 0.0000000e+00 
6.9133333e+00 6.0300000e+00 0.0000000e+00 
6.9400000e+00 5.9700000e+00 0.0000000e+00 
6.9400000e+00 5.9900000e+00 0.0000000e+00 
6.9400000e+00 6.0100000e+00 0.0000000e+00 
6.9400000e+00 6.0300000e+00 0.0000000e+00 
6.9666667e+00 5.9700000e+00 0.0000000e+00 
6.9666667e+00 5.9900000e+00 0.0000000e+00 
6.9666667e+00 6.0100000e+00 0.0000000e+00 
6.9666667e+00 6.0300000e+00 0.0000000e+00 
6.9933333e+00 5.9700000e+00 0.0000000e+00 
6.9933333e+00 5.9900000e+00 0.0000000e+00 
6.9933333e+00 6.0100000e+00 0.0000000e+00 
6.9933333e+00 6.0300000e+00 0.0000000e+00 
7.0200000e+00 5.9700000e+00 0.0000000e+00 
7.0200000e+00 5.9900000e+00 0.0000000e+00 
[...]
POINT_DATA 604
FIELD FieldData 2
DISPLACEMENT 3 604  float
0.0000000e+00 0.0000000e+00 0.0000000e+00 
0.0000000e+00 0.0000000e+00 0.0000000e+00 
1.3239683e-04 8.1698974e-05 0.0000000e+00 
4.1997488e-05 5.3566730e-05 0.0000000e+00 
0.0000000e+00 0.0000000e+00 0.0000000e+00 
-4.1900686e-05 5.3261406e-05 0.0000000e+00 
2.6519862e-04 2.5910460e-04 0.0000000e+00 
8.7845861e-05 2.3625518e-04 0.0000000e+00 
0.0000000e+00 0.0000000e+00 0.0000000e+00 
-1.3276324e-04 8.0572051e-05 0.0000000e+00 
-8.9121453e-05 2.3576711e-04 0.0000000e+00 
3.9385602e-04 5.5964826e-04 0.0000000e+00 
-2.6692540e-04 2.5819477e-04 0.0000000e+00 
1.2931829e-04 5.3505602e-04 0.0000000e+00 
-1.3395823e-04 5.3326287e-04 0.0000000e+00 
-3.9910555e-04 5.5379641e-04 0.0000000e+00 
5.1762079e-04 9.7270368e-04 0.0000000e+00 
1.6851196e-04 9.4828844e-04 0.0000000e+00 
-1.7952988e-04 9.4552940e-04 0.0000000e+00 
-5.2939983e-04 9.6502258e-04 0.0000000e+00 
6.3607650e-04 1.4996728e-03 0.0000000e+00 
2.0463717e-04 1.4733882e-03 0.0000000e+00 
-2.2587928e-04 1.4686532e-03 0.0000000e+00 
-6.5834252e-04 1.4850819e-03 0.0000000e+00 
7.4892402e-04 2.1335111e-03 0.0000000e+00 
2.3736449e-04 2.1066885e-03 0.0000000e+00 
-2.7346974e-04 2.1005884e-03 0.0000000e+00 
-7.8643401e-04 2.1153760e-03 0.0000000e+00 
8.5595683e-04 2.8743439e-03 0.0000000e+00 
2.6598446e-04 2.8459315e-03 0.0000000e+00 
-3.2301342e-04 2.8376854e-03 0.0000000e+00 
-9.1382644e-04 2.8497775e-03 0.0000000e+00 
9.5657128e-04 3.7192988e-03 0.0000000e+00 
2.9081424e-04 3.6882679e-03 0.0000000e+00 
-3.7418945e-04 3.6771317e-03 0.0000000e+00 
-1.0412020e-03 3.6854460e-03 0.0000000e+00 
1.0508580e-03 4.6624200e-03 0.0000000e+00 
3.1123442e-04 4.6302031e-03 0.0000000e+00 
-4.2769843e-04 4.6168607e-03 0.0000000e+00 
-1.1687248e-03 4.6229291e-03 0.0000000e+00 
1.1383133e-03 5.7050138e-03 0.0000000e+00 
3.2698163e-04 5.6696883e-03 0.0000000e+00 
-4.8376238e-04 5.6532404e-03 0.0000000e+00 
-1.2966247e-03 5.6550585e-03 0.0000000e+00 
1.2189475e-03 6.8401226e-03 0.0000000e+00 
3.3785134e-04 6.8032799e-03 0.0000000e+00 
-5.4264930e-04 6.7842236e-03 0.0000000e+00 
-1.4253015e-03 6.7834822e-03 0.0000000e+00 
1.2922959e-03 8.0691376e-03 0.0000000e+00 
3.4363612e-04 8.0288438e-03 0.0000000e+00 
-6.0453266e-04 8.0063629e-03 0.0000000e+00 
-1.5548706e-03 8.0010484e-03 0.0000000e+00 
1.3585037e-03 9.3850637e-03 0.0000000e+00 
3.4416967e-04 9.3429898e-03 0.0000000e+00 
-6.6964770e-04 9.3176334e-03 0.0000000e+00 
-1.6856622e-03 9.3095080e-03 0.0000000e+00 
1.4171111e-03 1.0789416e-02 0.0000000e+00 
3.3929360e-04 1.0743637e-02 0.0000000e+00 
-7.3810800e-04 1.0714620e-02 0.0000000e+00 
-1.8177134e-03 1.0701686e-02 0.0000000e+00 
1.4683535e-03 1.2275167e-02 0.0000000e+00 
3.2889659e-04 1.2227422e-02 0.0000000e+00 
-8.1010126e-04 1.2195340e-02 0.0000000e+00 
-1.9513253e-03 1.2179419e-02 0.0000000e+00 
1.5117786e-03 1.3843940e-02 0.0000000e+00 
3.1286559e-04 1.3792312e-02 0.0000000e+00 
-8.8568461e-04 1.3756406e-02 0.0000000e+00 
-2.0864570e-03 1.3735516e-02 0.0000000e+00 
1.5477043e-03 1.5488669e-02 0.0000000e+00 
2.9114034e-04 1.5434962e-02 0.0000000e+00 
-9.6500207e-04 1.5395874e-02 0.0000000e+00 
-2.2233845e-03 1.5371889e-02 0.0000000e+00 
1.5756878e-03 1.7211081e-02 0.0000000e+00 
2.6364778e-04 1.7153384e-02 0.0000000e+00 
-1.0480595e-03 1.7110378e-02 0.0000000e+00 
-2.3619905e-03 1.7081334e-02 0.0000000e+00 
1.5961225e-03 1.9004083e-02 0.0000000e+00 
2.3037714e-04 1.8944248e-02 0.0000000e+00 
-1.1349585e-03 1.8898006e-02 0.0000000e+00 
-2.5025268e-03 1.8865815e-02 0.0000000e+00 
1.6085363e-03 2.0869472e-02 0.0000000e+00 
1.9131127e-04 2.0805633e-02 0.0000000e+00 
-1.2256338e-03 2.0755386e-02 0.0000000e+00 
-2.6448450e-03 2.0718127e-02 0.0000000e+00 
1.6133538e-03 2.2800087e-02 0.0000000e+00 
1.4651089e-04 2.2734053e-02 0.0000000e+00 
-1.3201590e-03 2.2680795e-02 0.0000000e+00 
-2.7892115e-03 2.2640316e-02 0.0000000e+00 
1.6105441e-03 2.4796756e-02 0.0000000e+00 
9.5577203e-05 2.4727647e-02 0.0000000e+00 
-1.4188397e-03 2.4670820e-02 0.0000000e+00 
-2.9352502e-03 2.4626305e-02 0.0000000e+00 
1.5998196e-03 2.6856897e-02 0.0000000e+00 
3.9258707e-05 2.6783888e-02 0.0000000e+00 
-1.5209266e-03 2.6722976e-02 0.0000000e+00 
-3.0832554e-03 2.6673514e-02 0.0000000e+00 
1.5817934e-03 2.8974430e-02 0.0000000e+00 
-2.2724947e-05 2.8899413e-02 0.0000000e+00 
-1.6268180e-03 2.8835445e-02 0.0000000e+00 
-3.2331060e-03 2.8782956e-02 0.0000000e+00 
1.5560159e-03 3.1151392e-02 0.0000000e+00 
-9.0340406e-05 3.1072495e-02 0.0000000e+00 
-1.7363377e-03 3.1004754e-02 0.0000000e+00 
-3.3844788e-03 3.0947359e-02 0.0000000e+00 
1.5230516e-03 3.3380528e-02 0.0000000e+00 
-1.6343572e-04 3.3299790e-02 0.0000000e+00 
-1.8494473e-03 3.3229078e-02 0.0000000e+00 
-3.5376102e-03 3.3168823e-02 0.0000000e+00 
1.4824905e-03 3.5663896e-02 0.0000000e+00 
-2.4194083e-04 3.5579426e-02 0.0000000e+00 
-1.9659630e-03 3.5505100e-02 0.0000000e+00 
-3.6920817e-03 3.5440089e-02 0.0000000e+00 
1.4349850e-03 3.7994188e-02 0.0000000e+00 
-3.2569130e-04 3.7908072e-02 0.0000000e+00 
-2.0858335e-03 3.7830963e-02 0.0000000e+00 
-3.8480807e-03 3.7763281e-02 0.0000000e+00 
1.3801290e-03 4.0373501e-02 0.0000000e+00 
-4.1459303e-04 4.0283857e-02 0.0000000e+00 
-2.2088429e-03 4.0203343e-02 0.0000000e+00 
-4.0051355e-03 4.0131110e-02 0.0000000e+00 
1.3186188e-03 4.2794488e-02 0.0000000e+00 
-5.0844882e-04 4.2703437e-02 0.0000000e+00 
-2.3349106e-03 4.2620370e-02 0.0000000e+00 
-4.1634223e-03 4.2545695e-02 0.0000000e+00 
1.2500560e-03 4.5259262e-02 0.0000000e+00 
-6.0714108e-04 4.5164933e-02 0.0000000e+00 
-2.4637897e-03 4.5078710e-02 0.0000000e+00 
-4.3224191e-03 4.4999733e-02 0.0000000e+00 
1.1751772e-03 4.7760441e-02 0.0000000e+00 
-7.1044308e-04 4.7664981e-02 0.0000000e+00 
-2.5953737e-03 4.7576477e-02 0.0000000e+00 
-4.4822912e-03 4.7495324e-02 0.0000000e+00 
1.0935941e-03 5.0300136e-02 0.0000000e+00 
-8.1821666e-04 5.0201690e-02 0.0000000e+00 
-2.7293887e-03 5.0110319e-02 0.0000000e+00 
-4.6424695e-03 5.0025152e-02 0.0000000e+00 
1.0060796e-03 5.2870952e-02 0.0000000e+00 
-9.3020691e-04 5.2771678e-02 0.0000000e+00 
-2.8657025e-03 5.2678330e-02 0.0000000e+00 
-4.8031068e-03 5.2591278e-02 0.0000000e+00 
9.1221659e-04 5.5474968e-02 0.0000000e+00 
-1.0462375e-03 5.5373063e-02 0.0000000e+00 
-3.0039920e-03 5.5277111e-02 0.0000000e+00 
-4.9636344e-03 5.5186386e-02 0.0000000e+00 
8.1276732e-04 5.8104729e-02 0.0000000e+00 
-1.1659924e-03 5.8002269e-02 0.0000000e+00 
-3.1441206e-03 5.7904897e-02 0.0000000e+00 
-5.1242326e-03 5.7812532e-02 0.0000000e+00 
7.0781862e-04 6.0761235e-02 0.0000000e+00 
-1.2897097e-03 6.0657428e-02 0.0000000e+00 
-3.2861581e-03 6.0558224e-02 0.0000000e+00 
-5.2841798e-03 6.0463544e-02 0.0000000e+00 
5.9725065e-04 6.3441787e-02 0.0000000e+00 
-1.4164221e-03 6.3335964e-02 0.0000000e+00 
-3.4291379e-03 6.3234544e-02 0.0000000e+00 
-5.4435363e-03 6.3136779e-02 0.0000000e+00 
4.8189800e-04 6.6140105e-02 0.0000000e+00 
-1.5462114e-03 6.6034349e-02 0.0000000e+00 
-3.5732668e-03 6.5931901e-02 0.0000000e+00 
-5.6020518e-03 6.5833100e-02 0.0000000e+00 
3.6139530e-04 6.8858208e-02 0.0000000e+00 
-1.6788972e-03 6.8750752e-02 0.0000000e+00 
-3.7181648e-03 6.8646693e-02 0.0000000e+00 
-5.7590597e-03 6.8545134e-02 0.0000000e+00 
2.3654189e-04 7.1588631e-02 0.0000000e+00 
-1.8141275e-03 7.1481662e-02 0.0000000e+00 
-3.8636150e-03 7.1376921e-02 0.0000000e+00 
-5.9147346e-03 7.1274746e-02 0.0000000e+00 
1.0702116e-04 7.4333304e-02 0.0000000e+00 
-1.9516939e-03 7.4225056e-02 0.0000000e+00 
-4.0092586e-03 7.4119118e-02 0.0000000e+00 
-6.0683512e-03 7.4014589e-02 0.0000000e+00 
-2.6319824e-05 7.7084771e-02 0.0000000e+00 
-2.0912544e-03 7.6977427e-02 0.0000000e+00 
-4.1548845e-03 7.6871224e-02 0.0000000e+00 
-6.2200492e-03 7.6766490e-02 0.0000000e+00 
-1.6378289e-04 7.9844897e-02 0.0000000e+00 
-2.2325928e-03 7.9736717e-02 0.0000000e+00 
-4.3001276e-03 7.9629749e-02 0.0000000e+00 
-6.3690872e-03 7.9523092e-02 0.0000000e+00 
-3.0451954e-04 8.2606260e-02 0.0000000e+00 
-2.3753570e-03 8.2499409e-02 0.0000000e+00 
-4.4447674e-03 8.2392604e-02 0.0000000e+00 
-6.5156101e-03 8.2286165e-02 0.0000000e+00 
-4.4881386e-04 8.5370644e-02 0.0000000e+00 
-2.5193246e-03 8.5263412e-02 0.0000000e+00 
-4.5884365e-03 8.5156282e-02 0.0000000e+00 
-6.6588657e-03 8.5048359e-02 0.0000000e+00 
-5.9582070e-04 8.8130682e-02 0.0000000e+00 
-2.6641387e-03 8.8025202e-02 0.0000000e+00 
-4.7309099e-03 8.7918669e-02 0.0000000e+00 
-6.7990065e-03 8.7811392e-02 0.0000000e+00 
-7.4580596e-04 9.0888066e-02 0.0000000e+00 
-2.8095747e-03 9.0782663e-02 0.0000000e+00 
-4.8718232e-03 9.0676247e-02 0.0000000e+00 
-6.9352754e-03 9.0567933e-02 0.0000000e+00 
-8.9793239e-04 9.3635514e-02 0.0000000e+00 
-2.9552751e-03 9.3532276e-02 0.0000000e+00 
-5.0109500e-03 9.3426886e-02 0.0000000e+00 
-7.0678332e-03 9.3319635e-02 0.0000000e+00 
-1.0524866e-03 9.6374613e-02 0.0000000e+00 
-3.1009980e-03 9.6271929e-02 0.0000000e+00 
-5.1479107e-03 9.6167039e-02 0.0000000e+00 
-7.1959634e-03 9.6059210e-02 0.0000000e+00 
-1.2086830e-03 9.9098130e-02 0.0000000e+00 
-3.2463581e-03 9.8997964e-02 0.0000000e+00 
-5.2824984e-03 9.8894721e-02 0.0000000e+00 
-7.3198746e-03 9.8788293e-02 0.0000000e+00 
-1.3663437e-03 1.0180664e-01 0.0000000e+00 
-3.3915011e-03 1.0170828e-01 0.0000000e+00 
-5.4147307e-03 1.0160635e-01 0.0000000e+00 
-7.4387799e-03 1.0150072e-01 0.0000000e+00 
-1.5254773e-03 1.0449727e-01 0.0000000e+00 
-3.5354867e-03 1.0440018e-01 0.0000000e+00 
-5.5436650e-03 1.0429923e-01 0.0000000e+00 
-7.5527303e-03 1.0419372e-01 0.0000000e+00 
-1.6853043e-03 1.0716410e-01 0.0000000e+00 
-3.6783356e-03 1.0707013e-01 0.0000000e+00 
-5.6694721e-03 1.0697128e-01 0.0000000e+00 
-7.6615490e-03 1.0686783e-01 0.0000000e+00 
-1.8460537e-03 1.0980852e-01 0.0000000e+00 
-3.8198621e-03 1.0971615e-01 0.0000000e+00 
-5.7918025e-03 1.0961887e-01 0.0000000e+00 
-7.7645477e-03 1.0951588e-01 0.0000000e+00 
-2.0070216e-03 1.1242367e-01 0.0000000e+00 
-3.9597244e-03 1.1233478e-01 0.0000000e+00 
-5.9104502e-03 1.1223993e-01 0.0000000e+00 
-7.8619976e-03 1.1213939e-01 0.0000000e+00 
-2.1683971e-03 1.1501082e-01 0.0000000e+00 
-4.0977309e-03 1.1492390e-01 0.0000000e+00 
-6.0251245e-03 1.1483099e-01 0.0000000e+00 
-7.9532049e-03 1.1473128e-01 0.0000000e+00 
-2.3294751e-03 1.1756327e-01 0.0000000e+00 
-4.2335838e-03 1.1748015e-01 0.0000000e+00 
-6.1356568e-03 1.1738999e-01 0.0000000e+00 
-8.0384392e-03 1.1729308e-01 0.0000000e+00 
-2.4904389e-03 1.2008223e-01 0.0000000e+00 
-4.3671101e-03 1.2000142e-01 0.0000000e+00 
-6.2417892e-03 1.1991353e-01 0.0000000e+00 
-8.1170407e-03 1.1981780e-01 0.0000000e+00 
-2.6506245e-03 1.2256118e-01 0.0000000e+00 
-4.4980385e-03 1.2248443e-01 0.0000000e+00 
-6.3433778e-03 1.2239960e-01 0.0000000e+00 
-8.1893167e-03 1.2230698e-01 0.0000000e+00 
-2.8102105e-03 1.2500128e-01 0.0000000e+00 
-4.6262173e-03 1.2492713e-01 0.0000000e+00 
-6.4402008e-03 1.2484486e-01 0.0000000e+00 
-8.2546450e-03 1.2475372e-01 0.0000000e+00 
-2.9685770e-03 1.2739621e-01 0.0000000e+00 
-4.7514066e-03 1.2732635e-01 0.0000000e+00 
-6.5321434e-03 1.2724738e-01 0.0000000e+00 
-8.3133739e-03 1.2715962e-01 0.0000000e+00 
-3.1259007e-03 1.2974709e-01 0.0000000e+00 
-4.8734801e-03 1.2968007e-01 0.0000000e+00 
-6.6190253e-03 1.2960390e-01 0.0000000e+00 
-8.3649223e-03 1.2951789e-01 0.0000000e+00 
-3.2816082e-03 1.3204783e-01 0.0000000e+00 
-4.9922326e-03 1.3198524e-01 0.0000000e+00 
-6.7007626e-03 1.3191257e-01 0.0000000e+00 
-8.4096804e-03 1.3183015e-01 0.0000000e+00 
-3.4359100e-03 1.3429950e-01 0.0000000e+00 
-5.1075499e-03 1.3423996e-01 0.0000000e+00 
-6.7772022e-03 1.3417024e-01 0.0000000e+00 
-8.4471436e-03 1.3408979e-01 0.0000000e+00 
-3.5883111e-03 1.3649623e-01 0.0000000e+00 
-5.2192470e-03 1.3644118e-01 0.0000000e+00 
-6.8482994e-03 1.3637528e-01 0.0000000e+00 
-8.4777754e-03 1.3629851e-01 0.0000000e+00 
-3.7386807e-03 1.3863834e-01 0.0000000e+00 
-5.3275344e-03 1.3858710e-01 0.0000000e+00 
-6.9142939e-03 1.3852460e-01 0.0000000e+00 
-8.5010659e-03 1.3845082e-01 0.0000000e+00 
-3.8870589e-03 1.4072352e-01 0.0000000e+00 
-5.4317839e-03 1.4067553e-01 0.0000000e+00 
-6.9745511e-03 1.4061601e-01 0.0000000e+00 
-8.5173700e-03 1.4054449e-01 0.0000000e+00 
-4.0329661e-03 1.4274731e-01 0.0000000e+00 
-5.5321706e-03 1.4270384e-01 0.0000000e+00 
-7.0294460e-03 1.4264812e-01 0.0000000e+00 
-8.5268684e-03 1.4258047e-01 0.0000000e+00 
-4.1766207e-03 1.4471083e-01 0.0000000e+00 
-5.6286985e-03 1.4467058e-01 0.0000000e+00 
-7.0789390e-03 1.4461805e-01 0.0000000e+00 
-8.5291794e-03 1.4455266e-01 0.0000000e+00 
-4.3176744e-03 1.4660906e-01 0.0000000e+00 
-5.7212912e-03 1.4657329e-01 0.0000000e+00 
-7.1230613e-03 1.4652448e-01 0.0000000e+00 
-8.5249013e-03 1.4646302e-01 0.0000000e+00 
-4.4563335e-03 1.4844311e-01 0.0000000e+00 
-5.8099641e-03 1.4841050e-01 0.0000000e+00 
-7.1618551e-03 1.4836487e-01 0.0000000e+00 
-8.5136711e-03 1.4830566e-01 0.0000000e+00 
-4.5922685e-03 1.5020824e-01 0.0000000e+00 
-5.8947024e-03 1.5017999e-01 0.0000000e+00 
-7.1954004e-03 1.5013802e-01 0.0000000e+00 
-8.4961044e-03 1.5008269e-01 0.0000000e+00 
-4.7256997e-03 1.5190564e-01 0.0000000e+00 
-5.9755541e-03 1.5188045e-01 0.0000000e+00 
-7.2237906e-03 1.5184155e-01 0.0000000e+00 
-8.4718877e-03 1.5178844e-01 0.0000000e+00 
-4.8563482e-03 1.5353085e-01 0.0000000e+00 
-6.0525452e-03 1.5350984e-01 0.0000000e+00 
-7.2471382e-03 1.5347447e-01 0.0000000e+00 
-8.4416822e-03 1.5342514e-01 0.0000000e+00 
-4.9844473e-03 1.5508513e-01 0.0000000e+00 
-6.1257537e-03 1.5506701e-01 0.0000000e+00 
-7.2655847e-03 1.5503459e-01 0.0000000e+00 
-8.4052206e-03 1.5498738e-01 0.0000000e+00 
-5.1097652e-03 1.5656434e-01 0.0000000e+00 
-6.1952456e-03 1.5655016e-01 0.0000000e+00 
-7.2792734e-03 1.5652108e-01 0.0000000e+00 
-8.3632058e-03 1.5647750e-01 0.0000000e+00 
-5.2325476e-03 1.5796981e-01 0.0000000e+00 
-6.2611275e-03 1.5795832e-01 0.0000000e+00 
-7.2883916e-03 1.5793199e-01 0.0000000e+00 
-8.3154123e-03 1.5789039e-01 0.0000000e+00 
-5.3526051e-03 1.5929776e-01 0.0000000e+00 
-6.3235017e-03 1.5928990e-01 0.0000000e+00 
-7.2931089e-03 1.5926668e-01 0.0000000e+00 
-8.2625791e-03 1.5922850e-01 0.0000000e+00 
-5.4702205e-03 1.6054956e-01 0.0000000e+00 
-6.3824867e-03 1.6054414e-01 0.0000000e+00 
-7.2936426e-03 1.6052339e-01 0.0000000e+00 
-8.2045429e-03 1.6048701e-01 0.0000000e+00 
-5.5852656e-03 1.6172174e-01 0.0000000e+00 
-6.4382124e-03 1.6171958e-01 0.0000000e+00 
-7.2901816e-03 1.6170180e-01 0.0000000e+00 
-8.1420950e-03 1.6166853e-01 0.0000000e+00 
-5.6977890e-03 1.6281523e-01 0.0000000e+00 
-6.4910313e-03 1.6281566e-01 0.0000000e+00 
-7.2832621e-03 1.6280032e-01 0.0000000e+00 
-8.0750762e-03 1.6276935e-01 0.0000000e+00 
-5.8079540e-03 1.6382922e-01 0.0000000e+00 
-6.5407029e-03 1.6383161e-01 0.0000000e+00 
-7.2726330e-03 1.6381820e-01 0.0000000e+00 
-8.0041548e-03 1.6378876e-01 0.0000000e+00 
-5.9155859e-03 1.6476154e-01 0.0000000e+00 
-6.5875905e-03 1.6476659e-01 0.0000000e+00 
-7.2588549e-03 1.6475556e-01 0.0000000e+00 
-7.9298698e-03 1.6472885e-01 0.0000000e+00 
-6.0209930e-03 1.6561394e-01 0.0000000e+00 
-6.6318926e-03 1.6562056e-01 0.0000000e+00 
-7.2422169e-03 1.6561126e-01 0.0000000e+00 
-7.8521376e-03 1.6558574e-01 0.0000000e+00 
-6.1241217e-03 1.6638398e-01 0.0000000e+00 
-6.6737991e-03 1.6639286e-01 0.0000000e+00 
-7.2229390e-03 1.6638554e-01 0.0000000e+00 
-7.7718124e-03 1.6636243e-01 0.0000000e+00 
-6.2252705e-03 1.6707350e-01 0.0000000e+00 
-6.7134967e-03 1.6708354e-01 0.0000000e+00 
-7.2013588e-03 1.6707760e-01 0.0000000e+00 
-7.6887994e-03 1.6705537e-01 0.0000000e+00 
-6.3243758e-03 1.6768037e-01 0.0000000e+00 
-6.7512064e-03 1.6769223e-01 0.0000000e+00 
-7.1777110e-03 1.6768789e-01 0.0000000e+00 
-7.6039386e-03 1.6766772e-01 0.0000000e+00 
-6.4217393e-03 1.6820656e-01 0.0000000e+00 
-6.7871191e-03 1.6821919e-01 0.0000000e+00 
-7.1523501e-03 1.6821585e-01 0.0000000e+00 
-7.5171456e-03 1.6819626e-01 0.0000000e+00 
-6.5173083e-03 1.6865027e-01 0.0000000e+00 
-6.8214651e-03 1.6866428e-01 0.0000000e+00 
-7.1255080e-03 1.6866215e-01 0.0000000e+00 
-7.4292653e-03 1.6864427e-01 0.0000000e+00 
-6.6113839e-03 1.6901361e-01 0.0000000e+00 
-6.8544332e-03 1.6902798e-01 0.0000000e+00 
-7.0975485e-03 1.6902648e-01 0.0000000e+00 
-7.3402155e-03 1.6900885e-01 0.0000000e+00 
-6.7039171e-03 1.6929507e-01 0.0000000e+00 
-6.8862583e-03 1.6931038e-01 0.0000000e+00 
-7.0686956e-03 1.6930971e-01 0.0000000e+00 
-7.2508391e-03 1.6929344e-01 0.0000000e+00 
-6.7952050e-03 1.6949691e-01 0.0000000e+00 
-6.9171228e-03 1.6951218e-01 0.0000000e+00 
-7.0393165e-03 1.6951178e-01 0.0000000e+00 
-7.1610479e-03 1.6949545e-01 0.0000000e+00 
-6.8851955e-03 1.6961795e-01 0.0000000e+00 
-6.9472599e-03 1.6963372e-01 0.0000000e+00 
-7.0096206e-03 1.6963376e-01 0.0000000e+00 
-7.0716759e-03 1.6961844e-01 0.0000000e+00 
-6.9741973e-03 1.6966055e-01 0.0000000e+00 
-6.9768306e-03 1.6967590e-01 0.0000000e+00 
-6.9799650e-03 1.6967584e-01 0.0000000e+00 
-6.9826401e-03 1.6966016e-01 0.0000000e+00 
-7.0621698e-03 1.6962382e-01 0.0000000e+00 
-7.0060596e-03 1.6963923e-01 0.0000000e+00 
-6.9505343e-03 1.6963934e-01 0.0000000e+00 
-6.8947711e-03 1.6962430e-01 0.0000000e+00 
-7.1492361e-03 1.6950986e-01 0.0000000e+00 
-7.0352527e-03 1.6952481e-01 0.0000000e+00 
-6.9218722e-03 1.6952468e-01 0.0000000e+00 
-6.8079664e-03 1.6950955e-01 0.0000000e+00 
-7.2355415e-03 1.6931964e-01 0.0000000e+00 
-7.0643031e-03 1.6933363e-01 0.0000000e+00 
-6.8938580e-03 1.6933281e-01 0.0000000e+00 
-6.7228397e-03 1.6931702e-01 0.0000000e+00 
-7.3209412e-03 1.6905326e-01 0.0000000e+00 
-7.0935247e-03 1.6906674e-01 0.0000000e+00 
-6.8669259e-03 1.6906555e-01 0.0000000e+00 
-6.6399363e-03 1.6904997e-01 0.0000000e+00 
-7.4057202e-03 1.6871353e-01 0.0000000e+00 
-7.1230562e-03 1.6872572e-01 0.0000000e+00 
-6.8413804e-03 1.6872366e-01 0.0000000e+00 
-6.5591361e-03 1.6870713e-01 0.0000000e+00 
-7.4897941e-03 1.6830038e-01 0.0000000e+00 
-7.1530806e-03 1.6831175e-01 0.0000000e+00 
-6.8173370e-03 1.6830900e-01 0.0000000e+00 
-6.4811845e-03 1.6829243e-01 0.0000000e+00 
-7.5734275e-03 1.6781672e-01 0.0000000e+00 
-7.1836930e-03 1.6782650e-01 0.0000000e+00 
-6.7950961e-03 1.6782264e-01 0.0000000e+00 
-6.4059098e-03 1.6780491e-01 0.0000000e+00 
-7.6564923e-03 1.6726268e-01 0.0000000e+00 
-7.2150669e-03 1.6727135e-01 0.0000000e+00 
-6.7747492e-03 1.6726657e-01 0.0000000e+00 
-6.3340021e-03 1.6724856e-01 0.0000000e+00 
-7.7392389e-03 1.6664129e-01 0.0000000e+00 
-7.2472700e-03 1.6664815e-01 0.0000000e+00 
-6.7565707e-03 1.6664204e-01 0.0000000e+00 
-6.2652584e-03 1.6662271e-01 0.0000000e+00 
-7.8215144e-03 1.6595290e-01 0.0000000e+00 
-7.2804529e-03 1.6595842e-01 0.0000000e+00 
-6.7406174e-03 1.6595118e-01 0.0000000e+00 
-6.2003278e-03 1.6593139e-01 0.0000000e+00 
-7.9035541e-03 1.6520064e-01 0.0000000e+00 
-7.3146533e-03 1.6520415e-01 0.0000000e+00 
-6.7271336e-03 1.6519542e-01 0.0000000e+00 
-6.1389737e-03 1.6517420e-01 0.0000000e+00 
-7.9851788e-03 1.6438504e-01 0.0000000e+00 
-7.3499979e-03 1.6438703e-01 0.0000000e+00 
-6.7161407e-03 1.6437701e-01 0.0000000e+00 
-6.0818004e-03 1.6435518e-01 0.0000000e+00 
-8.0666090e-03 1.6350933e-01 0.0000000e+00 
-7.3864949e-03 1.6350917e-01 0.0000000e+00 
-6.7078514e-03 1.6349755e-01 0.0000000e+00 
-6.0285360e-03 1.6347420e-01 0.0000000e+00 
-8.1476384e-03 1.6257420e-01 0.0000000e+00 
-7.4242462e-03 1.6257239e-01 0.0000000e+00 
-6.7022506e-03 1.6255936e-01 0.0000000e+00 
-5.9797367e-03 1.6253530e-01 0.0000000e+00 
-8.2284870e-03 1.6158297e-01 0.0000000e+00 
-7.4632240e-03 1.6157891e-01 0.0000000e+00 
-6.6995125e-03 1.6156420e-01 0.0000000e+00 
-5.9351093e-03 1.6153860e-01 0.0000000e+00 
-8.3089402e-03 1.6053645e-01 0.0000000e+00 
-7.5035015e-03 1.6053063e-01 0.0000000e+00 
-6.6995884e-03 1.6051451e-01 0.0000000e+00 
-5.8951604e-03 1.6048811e-01 0.0000000e+00 
-8.3890689e-03 1.5943773e-01 0.0000000e+00 
-7.5451605e-03 1.5942989e-01 0.0000000e+00 
-6.7027155e-03 1.5941219e-01 0.0000000e+00 
-5.8595761e-03 1.5938457e-01 0.0000000e+00 
-8.4689124e-03 1.5828892e-01 0.0000000e+00 
-7.5879980e-03 1.5827881e-01 0.0000000e+00 