# vtk DataFile Version 4.0
vtk output
ASCII
DATASET UNSTRUCTURED_GRID
POINTS 604 float
5.5000000e+00 5.9700000e+00 0.0000000e+00 
5.5000000e+00 5.9900000e+00 0.0000000e+00 
5.5266667e+00 5.9700000e+00 0.0000000e+00 
5.5266667e+00 5.9900000e+00 0.0000000e+00 
5.5000000e+00 6.0100000e+00 0.0000000e+00 
5.5266667e+00 6.0100000e+00 0.0000000e+00 
5.5533333e+00 5.9700000e+00 0.0000000e+00 
5.5533333e+00 5.9900000e+00 0.0000000e+00 
5.5000000e+00 6.0300000e+00 0.0000000e+00 
5.5266667e+00 6.0300000e+00 0.0000000e+00 
5.5533333e+00 6.0100000e+00 0.0000000e+00 
5.5800000e+00 5.9700000e+00 0.0000000e+00 
5.5533333e+00 6.0300000e+00 0.0000000e+00 
5.5800000e+00 5.9900000e+00 0.0000000e+00 
5.5800000e+00 6.0100000e+00 0.0000000e+00 
5.5800000e+00 6.0300000e+00 0.0000000e+00 
5.6066667e+00 5.9700000e+00 0.0000000e+00 
5.6066667e+00 5.9900000e+00 0.0000000e+00 
5.6066667e+00 6.0100000e+00 0.0000000e+00 
5.6066667e+00 6.0300000e+00 0.0000000e+00 
5.6333333e+00 5.9700000e+00 0.0000000e+00 
5.6333333e+00 5.9900000e+00 0.0000000e+00 
5.6333333e+00 6.0100000e+00 0.0000000e+00 
5.6333333e+00 6.0300000e+00 0.0000000e+00 
5.6600000e+00 5.9700000e+00 0.0000000e+00 
5.6600000e+00 5.9900000e+00 0.0000000e+00 
5.6600000e+00 6.0100000e+00 0.0000000e+00 
5.6600000e+00 6.0300000e+00 0.0000000e+00 
5.6866667e+00 5.9700000e+00 0.0000000e+00 
5.6866667e+00 5.9900000e+00 0.0000000e+00 
5.6866667e+00 6.0100000e+00 0.0000000e+00 
5.6866667e+00 6.0300000e+00 0.0000000e+00 
5.7133333e+00 5.9700000e+00 0.0000000e+00 
5.7133333e+00 5.9900000e+00 0.0000000e+00 
5.7133333e+00 6.0100000e+00 0.0000000e+00 
5.7133333e+00 6.0300000e+00 0.0000000e+00 
5.7400000e+00 5.9700000e+00 0.0000000e+00 
5.7400000e+00 5.9900000e+00 0.0000000e+00 
5.7400000e+00 6.0100000e+00 0.0000000e+00 
5.7400000e+00 6.0300000e+00 0.0000000e+00 
5.7666667e+00 5.9700000e+00 0.0000000e+00 
5.7666667e+00 5.9900000e+00 0.0000000e+00 
5.7666667e+00 6.0100000e+00 0.0000000e+00 
5.7666667e+00 6.0300000e+00 0.0000000e+00 
5.7933333e+00 5.9700000e+00 0.0000000e+00 
5.7933333e+00 5.9900000e+00 0.0000000e+00 
5.7933333e+00 6.0100000e+00 0.0000000e+00 
5.7933333e+00 6.0300000e+00 0.0000000e+00 
5.8200000e+00 5.9700000e+00 0.0000000e+00 
5.8200000e+00 5.9900000e+00 0.0000000e+00 
5.8200000e+00 6.0100000e+00 0.0000000e+00 
5.8200000e+00 6.0300000e+00 0.0000000e+00 
5.8466667e+00 5.9700000e+00 0.0000000e+00 
5.8466667e+00 5.9900000e+00 0.0000000e+00 
5.8466667e+00 6.0100000e+00 0.0000000e+00 
5.8466667e+00 6.0300000e+00 0.0000000e+00 
5.8733333e+00 5.9700000e+00 0.0000000e+00 
5.8733333e+00 5.9900000e+00 0.0000000e+00 
5.8733333e+00 6.0100000e+00 0.0000000e+00 
5.8733333e+00 6.0300000e+00 0.0000000e+00 
5.9000000e+00 5.9700000e+00 0.0000000e+00 
5.9000000e+00 5.9900000e+00 0.0000000e+00 
5.9000000e+00 6.0100000e+00 0.0000000e+00 
5.9000000e+00 6.0300000e+00 0.0000000e+00 
5.9266667e+00 5.9700000e+00 0.0000000e+00 
5.9266667e+00 5.9900000e+00 0.0000000e+00 
5.9266667e+00 6.0100000e+00 0.0000000e+00 
5.9266667e+00 6.0300000e+00 0.0000000e+00 
5.9533333e+00 5.9700000e+00 0.0000000e+00 
5.9533333e+00 5.9900000e+00 0.0000000e+00 
5.9533333e+00 6.0100000e+00 0.0000000e+00 
5.9533333e+00 6.0300000e+00 0.0000000e+00 
5.9800000e+00 5.9700000e+00 0.0000000e+00 
5.9800000e+00 5.9900000e+00 0.0000000e+00 
5.9800000e+00 6.0100000e+00 0.0000000e+00 
5.9800000e+00 6.0300000e+00 0.0000000e+00 
6.0066667e+00 5.9700000e+00 0.0000000e+00 
6.0066667e+00 5.9900000e+00 0.0000000e+00 
6.0066667e+00 6.0100000e+00 0.0000000e+00 
6.0066667e+00 6.0300000e+00 0.0000000e+00 
6.0333333e+00 5.9700000e+00 0.0000000e+00 
6.0333333e+00 5.9900000e+00 0.0000000e+00 
6.0333333e+00 6.0100000e+00 0.0000000e+00 
6.0333333e+00 6.0300000e+00 0.0000000e+00 
6.0600000e+00 5.9700000e+00 0.0000000e+00 
6.0600000e+00 5.9900000e+00 0.0000000e+00 
6.0600000e+00 6.0100000e+00 0.0000000e+00 
6.0600000e+00 6.0300000e+00 0.0000000e+00 
6.0866667e+00 5.9700000e+00 0.0000000e+00 
6.0866667e+00 5.9900000e+00 0.0000000e+00 
6.0866667e+00 6.0100000e+00 0.0000000e+00 
6.0866667e+00 6.0300000e+00 0.0000000e+00 
6.1133333e+00 5.9700000e+00 0.0000000e+00 
6.1133333e+00 5.9900000e+00 0.0000000e+00 
6.1133333e+00 6.0100000e+00 0.0000000e+00 
6.1133333e+00 6.0300000e+00 0.0000000e+00 
6.1400000e+00 5.9700000e+00 0.0000000e+00 
6.1400000e+00 5.9900000e+00 0.0000000e+00 
6.1400000e+00 6.0100000e+00 0.0000000e+00 
6.1400000e+00 6.0300000e+00 0.0000000e+00 
6.1666667e+00 5.9700000e+00 0.0000000e+00 
6.1666667e+00 5.9900000e+00 0.0000000e+00 
6.1666667e+00 6.0100000e+00 0.0000000e+00 
6.1666667e+00 6.0300000e+00 0.0000000e+00 
6.1933333e+00 5.9700000e+00 0.0000000e+00 
6.1933333e+00 5.9900000e+00 0.0000000e+00 
6.1933333e+00 6.0100000e+00 0.0000000e+00 
6.1933333e+00 6.0300000e+00 0.0000000e+00 
6.2200000e+00 5.9700000e+00 0.0000000e+00 
6.2200000e+00 5.9900000e+00 0.0000000e+00 
6.2200000e+00 6.0100000e+00 0.0000000e+00 
6.2200000e+00 6.0300000e+00 0.0000000e+00 
6.2466667e+00 5.9700000e+00 0.0000000e+00 
6.2466667e+00 5.9900000e+00 0.0000000e+00 
6.2466667e+00 6.0100000e+00 0.0000000e+00 
6.2466667e+00 6.0300000e+00 0.0000000e+00 
6.2733333e+00 5.9700000e+00 0.0000000e+00 
6.2733333e+00 5.9900000e+00 0.0000000e+00 
6.2733333e+00 6.0100000e+00 0.0000000e+00 
6.2733333e+00 6.0300000e+00 0.0000000e+00 
6.3000000e+00 5.9700000e+00 0.0000000e+00 
6.3000000e+00 5.9900000e+00 0.0000000e+00 
6.3000000e+00 6.0100000e+00 0.0000000e+00 
6.3000000e+00 6.0300000e+00 0.0000000e+00 
6.3266667e+00 5.9700000e+00 0.0000000e+00 
6.3266667e+00 5.9900000e+00 0.0000000e+00 
6.3266667e+00 6.0100000e+00 0.0000000e+00 
6.3266667e+00 6.0300000e+00 0.0000000e+00 
6.3533333e+00 5.9700000e+00 0.0000000e+00 
6.3533333e+00 5.9900000e+00 0.0000000e+00 
6.3533333e+00 6.0100000e+00 0.0000000e+00 
6.3533333e+00 6.0300000e+00 0.0000000e+00 
6.3800000e+00 5.9700000e+00 0.0000000e+00 
6.3800000e+00 5.9900000e+00 0.0000000e+00 
6.3800000e+00 6.0100000e+00 0.0000000e+00 
6.3800000e+00 6.0300000e+00 0.0000000e+00 
6.4066667e+00 5.9700000e+00 0.0000000e+00 
6.4066667e+00 5.9900000e+00 0.0000000e+00 
6.4066667e+00 6.0100000e+00 0.0000000e+00 
6.4066667e+00 6.0300000e+00 0.0000000e+00 
6.4333333e+00 5.9700000e+00 0.0000000e+00 
6.4333333e+00 5.9900000e+00 0.0000000e+00 
6.4333333e+00 6.0100000e+00 0.0000000e+00 
6.4333333e+00 6.0300000e+00 0.0000000e+00 
6.4600000e+00 5.9700000e+00 0.0000000e+00 
6.4600000e+00 5.9900000e+00 0.0000000e+00 
6.4600000e+00 6.0100000e+00 0.0000000e+00 
6.4600000e+00 6.0300000e+00 0.0000000e+00 
6.4866667e+00 5.9700000e+00 0.0000000e+00 
6.4866667e+00 5.9900000e+00 0.0000000e+00 
6.4866667e+00 6.0100000e+00 0.0000000e+00 
6.4866667e+00 6.0300000e+00 0.0000000e+00 
6.5133333e+00 5.9700000e+00 0.0000000e+00 
6.5133333e+00 5.9900000e+00 0.0000000e+00 
6.5133333e+00 6.0100000e+00 0.0000000e+00 
6.5133333e+00 6.0300000e+00 0.0000000e+00 
6.5400000e+00 5.9700000e+00 0.0000000e+00 
6.5400000e+00 5.9900000e+00 0.0000000e+00 
6.5400000e+00 6.0100000e+00 0.0000000e+00 
6.5400000e+00 6.0300000e+00 0.0000000e+00 
6.5666667e+00 5.9700000e+00 0.0000000e+00 
6.5666667e+00 5.9900000e+00 0.0000000e+00 
6.5666667e+00 6.0100000e+00 0.0000000e+00 
6.5666667e+00 6.0300000e+00 0.0000000e+00 
6.5933333e+00 5.9700000e+00 0.0000000e+00 
6.5933333e+00 5.9900000e+00 0.0000000e+00 
6.5933333e+00 6.0100000e+00 0.0000000e+00 
6.5933333e+00 6.0300000e+00 0.0000000e+00 
6.6200000e+00 5.9700000e+00 0.0000000e+00 
6.6200000e+00 5.9900000e+00 0.0000000e+00 
6.6200000e+00 6.0100000e+00 0.0000000e+00 
6.6200000e+00 6.0300000e+00 0.0000000e+00 
6.6466667e+00 5.9700000e+00 0.0000000e+00 
6.6466667e+00 5.9900000e+00 0.0000000e+00 
6.6466667e+00 6.0100000e+00 0.0000000e+00 
6.6466667e+00 6.0300000e+00 0.0000000e+00 
6.6733333e+00 5.9700000e+00 0.0000000e+00 
6.6733333e+00 5.9900000e+00 0.0000000e+00 
6.6733333e+00 6.0100000e+00 0.0000000e+00 
6.6733333e+00 6.0300000e+00 0.0000000e+00 
6.7000000e+00 5.9700000e+00 0.0000000e+00 
6.7000000e+00 5.9900000e+00 0.0000000e+00 
6.7000000e+00 6.0100000e+00 0.0000000e+00 
6.7000000e+00 6.0300000e+00 0.0000000e+00 
6.7266667e+00 5.9700000e+00 0.0000000e+00 
6.7266667e+00 5.9900000e+00 0.0000000e+00 
6.7266667e+00 6.0100000e+00 0.0000000e+00 
6.7266667e+00 6.0300000e+00 0.0000000e+00 
6.7533333e+00 5.9700000e+00 0.0000000e+00 
6.7533333e+00 5.9900000e+00 0.0000000e+00 
6.7533333e+00 6.0100000e+00 0.0000000e+00 
6.7533333e+00 6.0300000e+00 0.0000000e+00 
6.7800000e+00 5.9700000e+00 0.0000000e+00 
6.7800000e+00 5.9900000e+00 0.0000000e+00 
6.7800000e+00 6.0100000e+00 0.0000000e+00 
6.7800000e+00 6.0300000e+00 0.0000000e+00 
6.8066667e+00 5.9700000e+00 0.0000000e+00 
6.8066667e+00 5.9900000e+00 0.0000000e+00 
6.8066667e+00 6.0100000e+00 0.0000000e+00 
6.8066667e+00 6.0300000e+00 0.0000000e+00 
6.8333333e+00 5.9700000e+00 0.0000000e+00 
6.8333333e+00 5.9900000e+00 0.0000000e+00 
6.8333333e+00 6.0100000e+00 0.0000000e+00 
6.8333333e+00 6.0300000e+00 0.0000000e+00 
6.8600000e+00 5.9700000e+00 0.0000000e+00 
6.8600000e+00 5.9900000e+00 0.0000000e+00 
6.8600000e+00 6.0100000e+00 0.0000000e+00 
6.8600000e+00 6.0300000e+00 0.0000000e+00 
6.8866667e+00 5.9700000e+00 0.0000000e+00 
6.8866667e+00 5.9900000e+00 0.0000000e+00 
6.8866667e+00 6.0100000e+00 0.0000000e+00 
6.8866667e+00 6.0300000e+00 0.0000000e+00 
6.9133333e+00 5.9700000e+00 0.0000000e+00 
6.9133333e+00 5.9900000e+00 0.0000000e+00 
6.9133333e+00 6.0100000e+00 0.0000000e+00 
6.9133333e+00 6.0300000e+00 0.0000000e+00 
6.9400000e+00 5.9700000e+00 0.0000000e+00 
6.9400000e+00 5.9900000e+00 0.0000000e+00 
6.9400000e+00 6.0100000e+00 0.0000000e+00 
6.9400000e+00 6.0300000e+00 0.0000000e+00 
6.9666667e+00 5.9700000e+00 0.0000000e+00 
6.9666667e+00 5.9900000e+00 0.0000000e+00 
6.9666667e+00 6.0100000e+00 0.0000000e+00 
6.9666667e+00 6.0300000e+00 0.0000000e+00 
6.9933333e+00 5.9700000e+00 0.0000000e+00 
6.9933333e+00 5.9900000e+00 0.0000000e+00 
6.9933333e+00 6.0100000e+00 0.0000000e+00 
6.9933333e+00 6.0300000e+00 0.0000000e+00 
7.0200000e+00 5.9700000e+00 0.0000000e+00 
7.0200000e+00 5.9900000e+00 0.0000000e+00 
[...]
POINT_DATA 604
FIELD FieldData 2
DISPLACEMENT 3 604  float
0.0000000e+00 0.0000000e+00 0.0000000e+00 
0.0000000e+00 0.0000000e+00 0.0000000e+00 
2.5636173e-11 -6.4619214e-12 0.0000000e+00 
-4.1730768e-11 1.6118908e-11 0.0000000e+00 
0.0000000e+00 0.0000000e+00 0.0000000e+00 
-4.8808619e-11 -3.7344078e-13 0.0000000e+00 
2.7399952e-11 3.5113065e-10 0.0000000e+00 
2.4715570e-12 1.1071027e-10 0.0000000e+00 
0.0000000e+00 0.0000000e+00 0.0000000e+00 
8.0193590e-13 2.6852734e-11 0.0000000e+00 
-1.1593185e-11 -5.7391930e-11 0.0000000e+00 
5.0166934e-11 3.4056835e-11 0.0000000e+00 
-1.7019564e-11 -2.9477619e-10 0.0000000e+00 
3.3085694e-11 7.5641320e-11 0.0000000e+00 
1.4301214e-11 2.9559740e-11 0.0000000e+00 
-8.4930179e-12 7.3133471e-11 0.0000000e+00 
7.7580681e-11 3.9884224e-10 0.0000000e+00 
5.7278056e-11 1.5894998e-10 0.0000000e+00 
3.5437380e-11 8.3542827e-12 0.0000000e+00 
9.8909713e-12 -2.3022913e-10 0.0000000e+00 
1.1153097e-10 9.1303121e-11 0.0000000e+00 
7.4725948e-11 1.3155509e-10 0.0000000e+00 
5.1481980e-11 1.0327829e-10 0.0000000e+00 
3.9731523e-11 1.4378408e-10 0.0000000e+00 
1.6197954e-10 4.7001834e-10 0.0000000e+00 
8.2839350e-11 2.4962296e-10 0.0000000e+00 
5.9770044e-11 5.4154488e-11 0.0000000e+00 
9.0774510e-11 -1.6659816e-10 0.0000000e+00 
1.6191886e-10 5.0287040e-10 0.0000000e+00 
1.9510168e-10 2.8259066e-10 0.0000000e+00 
1.7358756e-10 8.7116719e-11 0.0000000e+00 
9.5714825e-11 -1.3423088e-10 0.0000000e+00 
2.0899568e-10 1.8743654e-10 0.0000000e+00 
2.0209204e-10 2.2875996e-10 0.0000000e+00 
1.8352456e-10 2.0015616e-10 0.0000000e+00 
1.5167196e-10 2.3954274e-10 0.0000000e+00 
2.3455956e-10 5.5389820e-10 0.0000000e+00 
2.1769932e-10 3.1479704e-10 0.0000000e+00 
2.0325471e-10 1.6363369e-10 0.0000000e+00 
1.8977290e-10 -7.7749680e-11 0.0000000e+00 
2.4926291e-10 2.3432474e-10 0.0000000e+00 
2.3878054e-10 2.8052628e-10 0.0000000e+00 
2.2957874e-10 2.3430228e-10 0.0000000e+00 
2.2031214e-10 2.7739429e-10 0.0000000e+00 
2.6308691e-10 5.8536718e-10 0.0000000e+00 
2.5983549e-10 3.4383485e-10 0.0000000e+00 
2.5687264e-10 1.9175677e-10 0.0000000e+00 
2.5301437e-10 -5.3094056e-11 0.0000000e+00 
2.7662849e-10 2.4507128e-10 0.0000000e+00 
2.8023712e-10 2.9209518e-10 0.0000000e+00 
2.8441576e-10 2.4572586e-10 0.0000000e+00 
2.8811777e-10 2.8868930e-10 0.0000000e+00 
2.8864413e-10 5.7768244e-10 0.0000000e+00 
3.0058391e-10 3.3595335e-10 0.0000000e+00 
3.1268741e-10 1.8365128e-10 0.0000000e+00 
3.2406302e-10 -6.2207304e-11 0.0000000e+00 
3.0037635e-10 2.1518116e-10 0.0000000e+00 
3.2060630e-10 2.6258801e-10 0.0000000e+00 
3.4130451e-10 2.1603065e-10 0.0000000e+00 
3.6174402e-10 2.5867205e-10 0.0000000e+00 
3.1096458e-10 5.2525113e-10 0.0000000e+00 
3.4071288e-10 2.8316939e-10 0.0000000e+00 
3.7056162e-10 1.3043248e-10 0.0000000e+00 
3.9992749e-10 -1.1635663e-10 0.0000000e+00 
3.2150391e-10 1.3713292e-10 0.0000000e+00 
3.6057973e-10 1.8478581e-10 0.0000000e+00 
4.0000597e-10 1.3807368e-10 0.0000000e+00 
4.3938405e-10 1.8050499e-10 0.0000000e+00 
3.3133995e-10 4.2205043e-10 0.0000000e+00 
3.8061185e-10 1.7954908e-10 0.0000000e+00 
4.2994130e-10 2.6222765e-11 0.0000000e+00 
4.7905212e-10 -2.2132889e-10 0.0000000e+00 
3.4090599e-10 6.6310828e-12 0.0000000e+00 
4.0073351e-10 5.4082014e-11 0.0000000e+00 
4.6015617e-10 7.2191880e-12 0.0000000e+00 
5.1908484e-10 4.9245940e-11 0.0000000e+00 
3.4927929e-10 2.6167186e-10 0.0000000e+00 
4.2084364e-10 2.1246338e-11 0.0000000e+00 
4.9046010e-10 -1.3180683e-10 0.0000000e+00 
5.5813650e-10 -3.7739628e-10 0.0000000e+00 
3.6772454e-10 -1.8364198e-10 0.0000000e+00 
4.3482636e-10 -1.4050377e-10 0.0000000e+00 
5.1460227e-10 -1.6970977e-10 0.0000000e+00 
6.0724963e-10 -1.3196335e-10 0.0000000e+00 
4.0615127e-10 5.2051763e-11 0.0000000e+00 
4.3981063e-10 -1.6936304e-10 0.0000000e+00 
5.2965970e-10 -3.6775532e-10 0.0000000e+00 
6.7592373e-10 -5.9426843e-10 0.0000000e+00 
3.9543969e-10 -7.4685893e-11 0.0000000e+00 
5.5089670e-10 -2.9630443e-10 0.0000000e+00 
6.5053736e-10 -4.9485048e-10 0.0000000e+00 
6.9486653e-10 -7.2147123e-10 0.0000000e+00 
4.3384248e-10 -5.6426666e-10 0.0000000e+00 
5.5590939e-10 -5.2117524e-10 0.0000000e+00 
6.6506056e-10 -5.5034443e-10 0.0000000e+00 
7.6188859e-10 -5.1218074e-10 0.0000000e+00 
4.5387335e-10 -3.7072996e-10 0.0000000e+00 
5.6985191e-10 -6.1181323e-10 0.0000000e+00 
6.8809147e-10 -7.6502145e-10 0.0000000e+00 
8.0920344e-10 -1.0106708e-09 0.0000000e+00 
4.6341544e-10 -8.7696126e-10 0.0000000e+00 
5.9001285e-10 -8.2963622e-10 0.0000000e+00 
7.1684831e-10 -8.7637836e-10 0.0000000e+00 
8.4464527e-10 -8.3346754e-10 0.0000000e+00 
4.7551191e-10 -7.0849327e-10 0.0000000e+00 
6.1009951e-10 -9.5201551e-10 0.0000000e+00 
7.4503297e-10 -1.1055599e-09 0.0000000e+00 
8.8102263e-10 -1.3531421e-09 0.0000000e+00 
4.8723981e-10 -1.2393191e-09 0.0000000e+00 
6.3012375e-10 -1.1918143e-09 0.0000000e+00 
7.7258432e-10 -1.2383239e-09 0.0000000e+00 
9.1541692e-10 -1.1946398e-09 0.0000000e+00 
5.0077387e-10 -1.0912961e-09 0.0000000e+00 
6.4977743e-10 -1.3345749e-09 0.0000000e+00 
7.9920477e-10 -1.4875235e-09 0.0000000e+00 
9.4982885e-10 -1.7342852e-09 0.0000000e+00 
5.1339736e-10 -1.6401555e-09 0.0000000e+00 
6.6961147e-10 -1.5928304e-09 0.0000000e+00 
8.2539832e-10 -1.6390670e-09 0.0000000e+00 
9.8158389e-10 -1.5949292e-09 0.0000000e+00 
5.2796989e-10 -1.5099044e-09 0.0000000e+00 
6.8899430e-10 -1.7527474e-09 0.0000000e+00 
8.5054764e-10 -1.9051478e-09 0.0000000e+00 
1.0134250e-09 -2.1508606e-09 0.0000000e+00 
5.4142844e-10 -2.0733853e-09 0.0000000e+00 
7.0853942e-10 -2.0262781e-09 0.0000000e+00 
8.7523850e-10 -2.0721596e-09 0.0000000e+00 
1.0423517e-09 -2.0275911e-09 0.0000000e+00 
5.5692469e-10 -1.9577663e-09 0.0000000e+00 
7.2755998e-10 -2.1999937e-09 0.0000000e+00 
8.9880634e-10 -2.3519096e-09 0.0000000e+00 
1.0714520e-09 -2.5963889e-09 0.0000000e+00 
5.7077286e-10 -2.5321125e-09 0.0000000e+00 
7.4695701e-10 -2.4855522e-09 0.0000000e+00 
9.2213932e-10 -2.5310633e-09 0.0000000e+00 
1.0971192e-09 -2.4864001e-09 0.0000000e+00 
5.8574847e-10 -2.4311911e-09 0.0000000e+00 
7.6556323e-10 -2.6702154e-09 0.0000000e+00 
9.4409525e-10 -2.8207968e-09 0.0000000e+00 
1.1221043e-09 -3.0614635e-09 0.0000000e+00 
6.0901726e-10 -3.0150148e-09 0.0000000e+00 
7.7832808e-10 -2.9729059e-09 0.0000000e+00 
9.5962314e-10 -3.0005476e-09 0.0000000e+00 
1.1536590e-09 -2.9597238e-09 0.0000000e+00 
6.5386812e-10 -2.9151306e-09 0.0000000e+00 
7.8136465e-10 -3.1342741e-09 0.0000000e+00 
9.6485640e-10 -3.3282023e-09 0.0000000e+00 
1.2050784e-09 -3.5483930e-09 0.0000000e+00 
6.4910685e-10 -3.1633447e-09 0.0000000e+00 
8.8851039e-10 -3.3813571e-09 0.0000000e+00 
1.0736802e-09 -3.5751187e-09 0.0000000e+00 
1.2052600e-09 -3.7939124e-09 0.0000000e+00 
6.9151639e-10 -3.7556092e-09 0.0000000e+00 
8.9077135e-10 -3.7137004e-09 0.0000000e+00 
1.0770919e-09 -3.7403553e-09 0.0000000e+00 
1.2511197e-09 -3.6989041e-09 0.0000000e+00 
7.1690282e-10 -3.6669013e-09 0.0000000e+00 
9.0096573e-10 -3.9030171e-09 0.0000000e+00 
1.0879681e-09 -4.0510115e-09 0.0000000e+00 
1.2785095e-09 -4.2874184e-09 0.0000000e+00 
7.3019854e-10 -4.2518723e-09 0.0000000e+00 
9.1721519e-10 -4.2057081e-09 0.0000000e+00 
1.1044409e-09 -4.2493402e-09 0.0000000e+00 
1.2924503e-09 -4.2031531e-09 0.0000000e+00 
7.4667421e-10 -4.1666173e-09 0.0000000e+00 
9.3266285e-10 -4.4041777e-09 0.0000000e+00 
1.1196809e-09 -4.5518515e-09 0.0000000e+00 
1.3082688e-09 -4.7892523e-09 0.0000000e+00 
7.6115892e-10 -4.7527847e-09 0.0000000e+00 
9.4791192e-10 -4.7063243e-09 0.0000000e+00 
1.1343116e-09 -4.7494309e-09 0.0000000e+00 
1.3208697e-09 -4.7025178e-09 0.0000000e+00 
7.7780510e-10 -4.6668629e-09 0.0000000e+00 
9.6213320e-10 -4.9033485e-09 0.0000000e+00 
1.1475281e-09 -5.0499081e-09 0.0000000e+00 
1.3344693e-09 -5.2858256e-09 0.0000000e+00 
7.9203917e-10 -5.2488675e-09 0.0000000e+00 
9.7635681e-10 -5.2024232e-09 0.0000000e+00 
1.1603815e-09 -5.2450192e-09 0.0000000e+00 
1.3445693e-09 -5.1977407e-09 0.0000000e+00 
8.0835454e-10 -5.1605821e-09 0.0000000e+00 
9.8954815e-10 -5.3959286e-09 0.0000000e+00 
1.1718605e-09 -5.5415359e-09 0.0000000e+00 
1.3557176e-09 -5.7759523e-09 0.0000000e+00 
8.2219421e-10 -5.7365648e-09 0.0000000e+00 
1.0027043e-09 -5.6901456e-09 0.0000000e+00 
1.1829832e-09 -5.7322012e-09 0.0000000e+00 
1.3634276e-09 -5.6846108e-09 0.0000000e+00 
8.3803035e-10 -5.6441197e-09 0.0000000e+00 
1.0148274e-09 -5.8782704e-09 0.0000000e+00 
1.1927716e-09 -6.0230847e-09 0.0000000e+00 
1.3722321e-09 -6.2559882e-09 0.0000000e+00 
8.5101139e-10 -6.2121314e-09 0.0000000e+00 
1.0271142e-09 -6.1660422e-09 0.0000000e+00 
1.2024424e-09 -6.2075831e-09 0.0000000e+00 
1.3773414e-09 -6.1600269e-09 0.0000000e+00 
8.6498955e-10 -6.1170685e-09 0.0000000e+00 
1.0381778e-09 -6.3476224e-09 0.0000000e+00 
1.2106284e-09 -6.4909037e-09 0.0000000e+00 
1.3826590e-09 -6.7199324e-09 0.0000000e+00 
8.8585644e-10 -6.6775783e-09 0.0000000e+00 
1.0433838e-09 -6.6355859e-09 0.0000000e+00 
1.2127121e-09 -6.6597120e-09 0.0000000e+00 
1.3941378e-09 -6.6159993e-09 0.0000000e+00 
9.2745735e-10 -6.5683042e-09 0.0000000e+00 
1.0387600e-09 -6.7792027e-09 0.0000000e+00 
1.2047361e-09 -6.9642079e-09 0.0000000e+00 
1.4256735e-09 -7.1733347e-09 0.0000000e+00 
9.2013103e-10 -6.7891255e-09 0.0000000e+00 
1.1346477e-09 -6.9986668e-09 0.0000000e+00 
1.2970896e-09 -7.1835059e-09 0.0000000e+00 
1.4076599e-09 -7.3911730e-09 0.0000000e+00 
9.5768857e-10 -7.3361476e-09 0.0000000e+00 
1.1287209e-09 -7.2940433e-09 0.0000000e+00 
1.2874338e-09 -7.3170438e-09 0.0000000e+00 
1.4340285e-09 -7.2729252e-09 0.0000000e+00 
9.7852879e-10 -7.2179534e-09 0.0000000e+00 
1.1301565e-09 -7.4447367e-09 0.0000000e+00 
1.2849944e-09 -7.5851101e-09 0.0000000e+00 
1.4432257e-09 -7.8098676e-09 0.0000000e+00 
9.8685363e-10 -7.7457213e-09 0.0000000e+00 
1.1372716e-09 -7.6993007e-09 0.0000000e+00 
1.2880969e-09 -7.7386849e-09 0.0000000e+00 
1.4394932e-09 -7.6901051e-09 0.0000000e+00 
9.9798730e-10 -7.6196780e-09 0.0000000e+00 
1.1433500e-09 -7.8476214e-09 0.0000000e+00 
1.2900374e-09 -7.9876150e-09 0.0000000e+00 
1.4381988e-09 -8.2134017e-09 0.0000000e+00 
1.0064724e-09 -8.1380718e-09 0.0000000e+00 
1.1490615e-09 -8.0911891e-09 0.0000000e+00 
1.2915005e-09 -8.1300217e-09 0.0000000e+00 
1.4339208e-09 -8.0808632e-09 0.0000000e+00 
1.0167858e-09 -8.0017260e-09 0.0000000e+00 
1.1535468e-09 -8.2284212e-09 0.0000000e+00 
1.2916375e-09 -8.3672839e-09 0.0000000e+00 
1.4311746e-09 -8.5917150e-09 0.0000000e+00 
1.0241172e-09 -8.5070774e-09 0.0000000e+00 
1.1578755e-09 -8.4600470e-09 0.0000000e+00 
1.2915303e-09 -8.4983511e-09 0.0000000e+00 
1.4251830e-09 -8.4489529e-09 0.0000000e+00 
1.0332100e-09 -8.3602102e-09 0.0000000e+00 
1.1609992e-09 -8.5856212e-09 0.0000000e+00 
1.2901391e-09 -8.7235246e-09 0.0000000e+00 
1.4207209e-09 -8.9465894e-09 0.0000000e+00 
1.0393261e-09 -8.8521208e-09 0.0000000e+00 
1.1639433e-09 -8.8049661e-09 0.0000000e+00 
1.2885020e-09 -8.8427181e-09 0.0000000e+00 
1.4130759e-09 -8.7931244e-09 0.0000000e+00 
1.0471385e-09 -8.6943112e-09 0.0000000e+00 
1.1657030e-09 -8.9184063e-09 0.0000000e+00 
1.2856206e-09 -9.0555101e-09 0.0000000e+00 
1.4069569e-09 -9.2771968e-09 0.0000000e+00 
1.0516607e-09 -9.1721787e-09 0.0000000e+00 
1.1674875e-09 -9.1252039e-09 0.0000000e+00 
1.2827158e-09 -9.1624322e-09 0.0000000e+00 
1.3973987e-09 -9.1129671e-09 0.0000000e+00 
1.0569305e-09 -9.0061266e-09 0.0000000e+00 
1.1679213e-09 -9.2265987e-09 0.0000000e+00 
1.2784190e-09 -9.3621921e-09 0.0000000e+00 
1.3884683e-09 -9.5802129e-09 0.0000000e+00 
1.0683789e-09 -9.4715654e-09 0.0000000e+00 
1.1625695e-09 -9.4284269e-09 0.0000000e+00 
1.2683039e-09 -9.4487931e-09 0.0000000e+00 
1.3856145e-09 -9.4031314e-09 0.0000000e+00 
1.0996881e-09 -9.2871733e-09 0.0000000e+00 
1.1475532e-09 -9.4885103e-09 0.0000000e+00 
1.2484946e-09 -9.6644035e-09 0.0000000e+00 
1.4025478e-09 -9.8632529e-09 0.0000000e+00 
1.0832888e-09 -9.4200388e-09 0.0000000e+00 
1.2295951e-09 -9.6199906e-09 0.0000000e+00 
1.3257428e-09 -9.7957358e-09 0.0000000e+00 
1.3717136e-09 -9.9931948e-09 0.0000000e+00 
1.1099207e-09 -9.8666193e-09 0.0000000e+00 
1.2130659e-09 -9.8232033e-09 0.0000000e+00 
1.3044094e-09 -9.8424421e-09 0.0000000e+00 
1.3839339e-09 -9.7964930e-09 0.0000000e+00 
1.1202414e-09 -9.6685269e-09 0.0000000e+00 
1.2035167e-09 -9.8850379e-09 0.0000000e+00 
1.2900717e-09 -1.0017745e-08 0.0000000e+00 
1.3798809e-09 -1.0231784e-08 0.0000000e+00 
1.1180800e-09 -1.0093717e-08 0.0000000e+00 
1.1993688e-09 -1.0046032e-08 0.0000000e+00 
1.2811517e-09 -1.0081091e-08 0.0000000e+00 
1.3633990e-09 -1.0030892e-08 0.0000000e+00 
1.1185007e-09 -9.8857031e-09 0.0000000e+00 
1.1940917e-09 -1.0103230e-08 0.0000000e+00 
1.2711284e-09 -1.0235547e-08 0.0000000e+00 
1.3495716e-09 -1.0450624e-08 0.0000000e+00 
1.1160110e-09 -1.0299844e-08 0.0000000e+00 
1.1883814e-09 -1.0251626e-08 0.0000000e+00 
1.2606954e-09 -1.0286132e-08 0.0000000e+00 
1.3329139e-09 -1.0235429e-08 0.0000000e+00 
1.1151770e-09 -1.0080281e-08 0.0000000e+00 
1.1813675e-09 -1.0296502e-08 0.0000000e+00 
1.2489934e-09 -1.0427700e-08 0.0000000e+00 
1.3180093e-09 -1.0641503e-08 0.0000000e+00 
1.1111356e-09 -1.0480523e-08 0.0000000e+00 
1.1741282e-09 -1.0432086e-08 0.0000000e+00 
1.2371017e-09 -1.0466060e-08 0.0000000e+00 
1.3000040e-09 -1.0415176e-08 0.0000000e+00 
1.1087045e-09 -1.0249867e-08 0.0000000e+00 
1.1656169e-09 -1.0464752e-08 0.0000000e+00 
1.2239755e-09 -1.0594995e-08 0.0000000e+00 
1.2837273e-09 -1.0807503e-08 0.0000000e+00 
1.1030879e-09 -1.0636448e-08 0.0000000e+00 
1.1568612e-09 -1.0587819e-08 0.0000000e+00 
1.2106496e-09 -1.0621240e-08 0.0000000e+00 
1.2643909e-09 -1.0570209e-08 0.0000000e+00 
1.0990382e-09 -1.0394880e-08 0.0000000e+00 
1.1468591e-09 -1.0608405e-08 0.0000000e+00 
1.1961206e-09 -1.0737846e-08 0.0000000e+00 
1.2467593e-09 -1.0949039e-08 0.0000000e+00 
1.0915227e-09 -1.0767771e-08 0.0000000e+00 
1.1368205e-09 -1.0719253e-08 0.0000000e+00 
1.1816042e-09 -1.0752148e-08 0.0000000e+00 
1.2258037e-09 -1.0701279e-08 0.0000000e+00 
1.0846721e-09 -1.0518430e-08 0.0000000e+00 
1.1253794e-09 -1.0728371e-08 0.0000000e+00 
1.1657337e-09 -1.0856321e-08 0.0000000e+00 
1.2056673e-09 -1.1063981e-08 0.0000000e+00 
1.0835204e-09 -1.0879683e-08 0.0000000e+00 
1.1082939e-09 -1.0834812e-08 0.0000000e+00 
1.1442722e-09 -1.0851393e-08 0.0000000e+00 
1.1913858e-09 -1.0804229e-08 0.0000000e+00 
1.1015249e-09 -1.0613284e-08 0.0000000e+00 
1.0817716e-09 -1.0804650e-08 0.0000000e+00 
1.1134249e-09 -1.0971495e-08 0.0000000e+00 
1.1964243e-09 -1.1160631e-08 0.0000000e+00 
1.0732088e-09 -1.0653977e-08 0.0000000e+00 
1.1489638e-09 -1.0843941e-08 0.0000000e+00 
1.1763676e-09 -1.1010645e-08 0.0000000e+00 
1.1553121e-09 -1.1198414e-08 0.0000000e+00 
1.0862666e-09 -1.0998342e-08 0.0000000e+00 
1.1208398e-09 -1.0953129e-08 0.0000000e+00 
1.1440483e-09 -1.0968574e-08 0.0000000e+00 
1.1557940e-09 -1.0921170e-08 0.0000000e+00 
1.0835521e-09 -1.0720460e-08 0.0000000e+00 
1.0993698e-09 -1.0926350e-08 0.0000000e+00 
1.1184619e-09 -1.1051415e-08 0.0000000e+00 
1.1407288e-09 -1.1255194e-08 0.0000000e+00 
1.0685416e-09 -1.1045487e-08 0.0000000e+00 
1.0830784e-09 -1.0996106e-08 0.0000000e+00 
1.0981308e-09 -1.1026818e-08 0.0000000e+00 
1.1135949e-09 -1.0975323e-08 0.0000000e+00 
1.0560245e-09 -1.0759590e-08 0.0000000e+00 
1.0656161e-09 -1.0966387e-08 0.0000000e+00 
1.0767040e-09 -1.1091041e-08 0.0000000e+00 
1.0891848e-09 -1.1295808e-08 0.0000000e+00 
1.0404752e-09 -1.1075577e-08 0.0000000e+00 
1.0476964e-09 -1.1025641e-08 0.0000000e+00 
1.0548975e-09 -1.1055797e-08 0.0000000e+00 
1.0619754e-09 -1.1003831e-08 0.0000000e+00 
1.0265326e-09 -1.0780373e-08 0.0000000e+00 
1.0284431e-09 -1.0985837e-08 0.0000000e+00 
1.0318345e-09 -1.1109374e-08 0.0000000e+00 
1.0366073e-09 -1.1312888e-08 0.0000000e+00 
1.0092836e-09 -1.1084824e-08 0.0000000e+00 
1.0089362e-09 -1.1034644e-08 0.0000000e+00 
1.0085980e-09 -1.1064265e-08 0.0000000e+00 
1.0081648e-09 -1.1012135e-08 0.0000000e+00 
9.9360638e-10 -1.0780997e-08 0.0000000e+00 
9.8812599e-10 -1.0985102e-08 0.0000000e+00 
9.8413543e-10 -1.1107679e-08 0.0000000e+00 
9.8152986e-10 -1.1309916e-08 0.0000000e+00 
9.7465184e-10 -1.1074361e-08 0.0000000e+00 
9.6705048e-10 -1.1023967e-08 0.0000000e+00 
9.5948505e-10 -1.1053030e-08 0.0000000e+00 
9.5185248e-10 -1.1000768e-08 0.0000000e+00 
9.5723677e-10 -1.0762299e-08 0.0000000e+00 
9.4469748e-10 -1.0965021e-08 0.0000000e+00 
9.3363584e-10 -1.1086786e-08 0.0000000e+00 
9.2395028e-10 -1.1287723e-08 0.0000000e+00 
9.3628419e-10 -1.1044738e-08 0.0000000e+00 
9.2228367e-10 -1.0994424e-08 0.0000000e+00 
9.0780314e-10 -1.1022956e-08 0.0000000e+00 
8.9274313e-10 -1.0970857e-08 0.0000000e+00 
9.1600717e-10 -1.0727642e-08 0.0000000e+00 
8.9844312e-10 -1.0926837e-08 0.0000000e+00 
8.8062390e-10 -1.1047126e-08 0.0000000e+00 
8.6244547e-10 -1.1244616e-08 0.0000000e+00 
9.0104341e-10 -1.1001300e-08 0.0000000e+00 
8.6913195e-10 -1.0954481e-08 0.0000000e+00 
8.4804978e-10 -1.0967243e-08 0.0000000e+00 
8.3769355e-10 -1.0918720e-08 0.0000000e+00 
9.0461390e-10 -1.0670366e-08 0.0000000e+00 
8.3063828e-10 -1.0851570e-08 0.0000000e+00 
8.0636686e-10 -1.1009341e-08 0.0000000e+00 
8.3170687e-10 -1.1188913e-08 0.0000000e+00 
8.6333388e-10 -1.0637230e-08 0.0000000e+00 
8.8255156e-10 -1.0817020e-08 0.0000000e+00 
8.5518155e-10 -1.0974651e-08 0.0000000e+00 
7.8110074e-10 -1.1152853e-08 0.0000000e+00 
8.6185091e-10 -1.0898486e-08 0.0000000e+00 
8.4241854e-10 -1.0851304e-08 0.0000000e+00 
8.1202481e-10 -1.0862922e-08 0.0000000e+00 
7.7055455e-10 -1.0814168e-08 0.0000000e+00 
8.4520338e-10 -1.0560644e-08 0.0000000e+00 
8.0864084e-10 -1.0755743e-08 0.0000000e+00 
7.7531472e-10 -1.0873126e-08 0.0000000e+00 
7.4511075e-10 -1.1066733e-08 0.0000000e+00 
8.1652336e-10 -1.0805958e-08 0.0000000e+00 
7.7984484e-10 -1.0754730e-08 0.0000000e+00 
7.4367374e-10 -1.0781060e-08 0.0000000e+00 
7.0789226e-10 -1.0728353e-08 0.0000000e+00 
7.9030448e-10 -1.0463244e-08 0.0000000e+00 
7.4985715e-10 -1.0659158e-08 0.0000000e+00 
7.1092380e-10 -1.0776104e-08 0.0000000e+00 
6.7339800e-10 -1.0970616e-08 0.0000000e+00 
7.6099930e-10 -1.0702627e-08 0.0000000e+00 
7.1940758e-10 -1.0650854e-08 0.0000000e+00 
6.7780301e-10 -1.0676621e-08 0.0000000e+00 
6.3606854e-10 -1.0623455e-08 0.0000000e+00 
7.3330807e-10 -1.0353868e-08 0.0000000e+00 
6.8761028e-10 -1.0548433e-08 0.0000000e+00 
6.4341237e-10 -1.0664258e-08 0.0000000e+00 
6.0060991e-10 -1.0857510e-08 0.0000000e+00 
7.0226917e-10 -1.0584961e-08 0.0000000e+00 
6.5555315e-10 -1.0532935e-08 0.0000000e+00 
6.0884903e-10 -1.0558162e-08 0.0000000e+00 
5.6204701e-10 -1.0504832e-08 0.0000000e+00 
6.7281341e-10 -1.0230854e-08 0.0000000e+00 
6.2217490e-10 -1.0424046e-08 0.0000000e+00 
5.7304375e-10 -1.0538902e-08 0.0000000e+00 
5.2531668e-10 -1.0730866e-08 0.0000000e+00 
6.4003981e-10 -1.0454126e-08 0.0000000e+00 
5.8852745e-10 -1.0401881e-08 0.0000000e+00 
5.3705267e-10 -1.0426544e-08 0.0000000e+00 
4.8550846e-10 -1.0373080e-08 0.0000000e+00 
6.0882657e-10 -1.0095076e-08 0.0000000e+00 
5.5358918e-10 -1.0286874e-08 0.0000000e+00 
4.9984643e-10 -1.0400903e-08 0.0000000e+00 
4.4749751e-10 -1.0591553e-08 0.0000000e+00 
5.7404450e-10 -1.0310705e-08 0.0000000e+00 
5.1857546e-10 -1.0258526e-08 0.0000000e+00 
4.6264515e-10 -1.0282651e-08 0.0000000e+00 
4.0615096e-10 -1.0229335e-08 0.0000000e+00 
5.3999356e-10 -9.9498170e-09 0.0000000e+00 
4.8212782e-10 -1.0138152e-08 0.0000000e+00 
4.2408427e-10 -1.0250715e-08 0.0000000e+00 
3.6576613e-10 -1.0437984e-08 0.0000000e+00 
5.1090401e-10 -1.0159879e-08 0.0000000e+00 
4.4039578e-10 -1.0111056e-08 0.0000000e+00 
3.8031437e-10 -1.0119958e-08 0.0000000e+00 
3.3056610e-10 -1.0070078e-08 0.0000000e+00 
4.9976503e-10 -9.7886856e-09 0.0000000e+00 
3.8974761e-10 -9.9596209e-09 0.0000000e+00 
3.2770356e-10 -1.0108233e-08 0.0000000e+00 
3.1353770e-10 -1.0278174e-08 0.0000000e+00 
4.4528805e-10 -9.7060259e-09 0.0000000e+00 
4.2618088e-10 -9.8755305e-09 0.0000000e+00 
3.6225291e-10 -1.0024002e-08 0.0000000e+00 
2.5339130e-10 -1.0192551e-08 0.0000000e+00 
4.2904859e-10 -9.9084398e-09 0.0000000e+00 
3.7388133e-10 -9.8592536e-09 0.0000000e+00 