# vtk DataFile Version 4.0
vtk output
ASCII
DATASET UNSTRUCTURED_GRID
POINTS 604 float
5.5000000e+00 5.9700000e+00 0.0000000e+00 
5.5000000e+00 5.9900000e+00 0.0000000e+00 
5.5266667e+00 5.9700000e+00 0.0000000e+00 
5.5266667e+00 5.9900000e+00 0.0000000e+00 
5.5000000e+00 6.0100000e+00 0.0000000e+00 
5.5266667e+00 6.0100000e+00 0.0000000e+00 
5.5533333e+00 5.9700000e+00 0.0000000e+00 
5.5533333e+00 5.9900000e+00 0.0000000e+00 
5.5000000e+00 6.0300000e+00 0.0000000e+00 
5.5266667e+00 6.0300000e+00 0.0000000e+00 
5.5533333e+00 6.0100000e+00 0.0000000e+00 
5.5800000e+00 5.9700000e+00 0.0000000e+00 
5.5533333e+00 6.0300000e+00 0.0000000e+00 
5.5800000e+00 5.9900000e+00 0.0000000e+00 
5.5800000e+00 6.0100000e+00 0.0000000e+00 
5.5800000e+00 6.0300000e+00 0.0000000e+00 
5.6066667e+00 5.9700000e+00 0.0000000e+00 
5.6066667e+00 5.9900000e+00 0.0000000e+00 
5.6066667e+00 6.0100000e+00 0.0000000e+00 
5.6066667e+00 6.0300000e+00 0.0000000e+00 
5.6333333e+00 5.9700000e+00 0.0000000e+00 
5.6333333e+00 5.9900000e+00 0.0000000e+00 
5.6333333e+00 6.0100000e+00 0.0000000e+00 
5.6333333e+00 6.0300000e+00 0.0000000e+00 
5.6600000e+00 5.9700000e+00 0.0000000e+00 
5.6600000e+00 5.9900000e+00 0.0000000e+00 
5.6600000e+00 6.0100000e+00 0.0000000e+00 
5.6600000e+00 6.0300000e+00 0.0000000e+00 
5.6866667e+00 5.9700000e+00 0.0000000e+00 
5.6866667e+00 5.9900000e+00 0.0000000e+00 
5.6866667e+00 6.0100000e+00 0.0000000e+00 
5.6866667e+00 6.0300000e+00 0.0000000e+00 
5.7133333e+00 5.9700000e+00 0.0000000e+00 
5.7133333e+00 5.9900000e+00 0.0000000e+00 
5.7133333e+00 6.0100000e+00 0.0000000e+00 
5.7133333e+00 6.0300000e+00 0.0000000e+00 
5.7400000e+00 5.9700000e+00 0.0000000e+00 
5.7400000e+00 5.9900000e+00 0.0000000e+00 
5.7400000e+00 6.0100000e+00 0.0000000e+00 
5.7400000e+00 6.0300000e+00 0.0000000e+00 
5.7666667e+00 5.9700000e+00 0.0000000e+00 
5.7666667e+00 5.9900000e+00 0.0000000e+00 
5.7666667e+00 6.0100000e+00 0.0000000e+00 
5.7666667e+00 6.0300000e+00 0.0000000e+00 
5.7933333e+00 5.9700000e+00 0.0000000e+00 
5.7933333e+00 5.9900000e+00 0.0000000e+00 
5.7933333e+00 6.0100000e+00 0.0000000e+00 
5.7933333e+00 6.0300000e+00 0.0000000e+00 
5.8200000e+00 5.9700000e+00 0.0000000e+00 
5.8200000e+00 5.9900000e+00 0.0000000e+00 
5.8200000e+00 6.0100000e+00 0.0000000e+00 
5.8200000e+00 6.0300000e+00 0.0000000e+00 
5.8466667e+00 5.9700000e+00 0.0000000e+00 
5.8466667e+00 5.9900000e+00 0.0000000e+00 
5.8466667e+00 6.0100000e+00 0.0000000e+00 
5.8466667e+00 6.0300000e+00 0.0000000e+00 
5.8733333e+00 5.9700000e+00 0.0000000e+00 
5.8733333e+00 5.9900000e+00 0.0000000e+00 
5.8733333e+00 6.0100000e+00 0.0000000e+00 
5.8733333e+00 6.0300000e+00 0.0000000e+00 
5.9000000e+00 5.9700000e+00 0.0000000e+00 
5.9000000e+00 5.9900000e+00 0.0000000e+00 
5.9000000e+00 6.0100000e+00 0.0000000e+00 
5.9000000e+00 6.0300000e+00 0.0000000e+00 
5.9266667e+00 5.9700000e+00 0.0000000e+00 
5.9266667e+00 5.9900000e+00 0.0000000e+00 
5.9266667e+00 6.0100000e+00 0.0000000e+00 
5.9266667e+00 6.0300000e+00 0.0000000e+00 
5.9533333e+00 5.9700000e+00 0.0000000e+00 
5.9533333e+00 5.9900000e+00 0.0000000e+00 
5.9533333e+00 6.0100000e+00 0.0000000e+00 
5.9533333e+00 6.0300000e+00 0.0000000e+00 
5.9800000e+00 5.9700000e+00 0.0000000e+00 
5.9800000e+00 5.9900000e+00 0.0000000e+00 
5.9800000e+00 6.0100000e+00 0.0000000e+00 
5.9800000e+00 6.0300000e+00 0.0000000e+00 
6.0066667e+00 5.9700000e+00 0.0000000e+00 
6.0066667e+00 5.9900000e+00 0.0000000e+00 
6.0066667e+00 6.0100000e+00 0.0000000e+00 
6.0066667e+00 6.0300000e+00 0.0000000e+00 
6.0333333e+00 5.9700000e+00 0.0000000e+00 
6.0333333e+00 5.9900000e+00 0.0000000e+00 
6.0333333e+00 6.0100000e+00 0.0000000e+00 
6.0333333e+00 6.0300000e+00 0.0000000e+00 
6.0600000e+00 5.9700000e+00 0.0000000e+00 
6.0600000e+00 5.9900000e+00 0.0000000e+00 
6.0600000e+00 6.0100000e+00 0.0000000e+00 
6.0600000e+00 6.0300000e+00 0.0000000e+00 
6.0866667e+00 5.9700000e+00 0.0000000e+00 
6.0866667e+00 5.9900000e+00 0.0000000e+00 
6.0866667e+00 6.0100000e+00 0.0000000e+00 
6.0866667e+00 6.0300000e+00 0.0000000e+00 
6.1133333e+00 5.9700000e+00 0.0000000e+00 
6.1133333e+00 5.9900000e+00 0.0000000e+00 
6.1133333e+00 6.0100000e+00 0.0000000e+00 
6.1133333e+00 6.0300000e+00 0.0000000e+00 
6.1400000e+00 5.9700000e+00 0.0000000e+00 
6.1400000e+00 5.9900000e+00 0.0000000e+00 
6.1400000e+00 6.0100000e+00 0.0000000e+00 
6.1400000e+00 6.0300000e+00 0.0000000e+00 
6.1666667e+00 5.9700000e+00 0.0000000e+00 
6.1666667e+00 5.9900000e+00 0.0000000e+00 
6.1666667e+00 6.0100000e+00 0.0000000e+00 
6.1666667e+00 6.0300000e+00 0.0000000e+00 
6.1933333e+00 5.9700000e+00 0.0000000e+00 
6.1933333e+00 5.9900000e+00 0.0000000e+00 
6.1933333e+00 6.0100000e+00 0.0000000e+00 
6.1933333e+00 6.0300000e+00 0.0000000e+00 
6.2200000e+00 5.9700000e+00 0.0000000e+00 
6.2200000e+00 5.9900000e+00 0.0000000e+00 
6.2200000e+00 6.0100000e+00 0.0000000e+00 
6.2200000e+00 6.0300000e+00 0.0000000e+00 
6.2466667e+00 5.9700000e+00 0.0000000e+00 
6.2466667e+00 5.9900000e+00 0.0000000e+00 
6.2466667e+00 6.0100000e+00 0.0000000e+00 
6.2466667e+00 6.0300000e+00 0.0000000e+00 
6.2733333e+00 5.9700000e+00 0.0000000e+00 
6.2733333e+00 5.9900000e+00 0.0000000e+00 
6.2733333e+00 6.0100000e+00 0.0000000e+00 
6.2733333e+00 6.0300000e+00 0.0000000e+00 
6.3000000e+00 5.9700000e+00 0.0000000e+00 
6.3000000e+00 5.9900000e+00 0.0000000e+00 
6.3000000e+00 6.0100000e+00 0.0000000e+00 
6.3000000e+00 6.0300000e+00 0.0000000e+00 
6.3266667e+00 5.9700000e+00 0.0000000e+00 
6.3266667e+00 5.9900000e+00 0.0000000e+00 
6.3266667e+00 6.0100000e+00 0.0000000e+00 
6.3266667e+00 6.0300000e+00 0.0000000e+00 
6.3533333e+00 5.9700000e+00 0.0000000e+00 
6.3533333e+00 5.9900000e+00 0.0000000e+00 
6.3533333e+00 6.0100000e+00 0.0000000e+00 
6.3533333e+00 6.0300000e+00 0.0000000e+00 
6.3800000e+00 5.9700000e+00 0.0000000e+00 
6.3800000e+00 5.9900000e+00 0.0000000e+00 
6.3800000e+00 6.0100000e+00 0.0000000e+00 
6.3800000e+00 6.0300000e+00 0.0000000e+00 
6.4066667e+00 5.9700000e+00 0.0000000e+00 
6.4066667e+00 5.9900000e+00 0.0000000e+00 
6.4066667e+00 6.0100000e+00 0.0000000e+00 
6.4066667e+00 6.0300000e+00 0.0000000e+00 
6.4333333e+00 5.9700000e+00 0.0000000e+00 
6.4333333e+00 5.9900000e+00 0.0000000e+00 
6.4333333e+00 6.0100000e+00 0.0000000e+00 
6.4333333e+00 6.0300000e+00 0.0000000e+00 
6.4600000e+00 5.9700000e+00 0.0000000e+00 
6.4600000e+00 5.9900000e+00 0.0000000e+00 
6.4600000e+00 6.0100000e+00 0.0000000e+00 
6.4600000e+00 6.0300000e+00 0.0000000e+00 
6.4866667e+00 5.9700000e+00 0.0000000e+00 
6.4866667e+00 5.9900000e+00 0.0000000e+00 
6.4866667e+00 6.0100000e+00 0.0000000e+00 
6.4866667e+00 6.0300000e+00 0.0000000e+00 
6.5133333e+00 5.9700000e+00 0.0000000e+00 
6.5133333e+00 5.9900000e+00 0.0000000e+00 
6.5133333e+00 6.0100000e+00 0.0000000e+00 
6.5133333e+00 6.0300000e+00 0.0000000e+00 
6.5400000e+00 5.9700000e+00 0.0000000e+00 
6.5400000e+00 5.9900000e+00 0.0000000e+00 
6.5400000e+00 6.0100000e+00 0.0000000e+00 
6.5400000e+00 6.0300000e+00 0.0000000e+00 
6.5666667e+00 5.9700000e+00 0.0000000e+00 
6.5666667e+00 5.9900000e+00 0.0000000e+00 
6.5666667e+00 6.0100000e+00 0.0000000e+00 
6.5666667e+00 6.0300000e+00 0.0000000e+00 
6.5933333e+00 5.9700000e+00 0.0000000e+00 
6.5933333e+00 5.9900000e+00 0.0000000e+00 
6.5933333e+00 6.0100000e+00 0.0000000e+00 
6.5933333e+00 6.0300000e+00 0.0000000e+00 
6.6200000e+00 5.9700000e+00 0.0000000e+00 
6.6200000e+00 5.9900000e+00 0.0000000e+00 
6.6200000e+00 6.0100000e+00 0.0000000e+00 
6.6200000e+00 6.0300000e+00 0.0000000e+00 
6.6466667e+00 5.9700000e+00 0.0000000e+00 
6.6466667e+00 5.9900000e+00 0.0000000e+00 
6.6466667e+00 6.0100000e+00 0.0000000e+00 
6.6466667e+00 6.0300000e+00 0.0000000e+00 
6.6733333e+00 5.9700000e+00 0.0000000e+00 
6.6733333e+00 5.9900000e+00 0.0000000e+00 
6.6733333e+00 6.0100000e+00 0.0000000e+00 
6.6733333e+00 6.0300000e+00 0.0000000e+00 
6.7000000e+00 5.9700000e+00 0.0000000e+00 
6.7000000e+00 5.9900000e+00 0.0000000e+00 
6.7000000e+00 6.0100000e+00 0.0000000e+00 
6.7000000e+00 6.0300000e+00 0.0000000e+00 
6.7266667e+00 5.9700000e+00 0.0000000e+00 
6.7266667e+00 5.9900000e+00 0.0000000e+00 
6.7266667e+00 6.0100000e+00 0.0000000e+00 
6.7266667e+00 6.0300000e+00 0.0000000e+00 
6.7533333e+00 5.9700000e+00 0.0000000e+00 
6.7533333e+00 5.9900000e+00 0.0000000e+00 
6.7533333e+00 6.0100000e+00 0.0000000e+00 
6.7533333e+00 6.0300000e+00 0.0000000e+00 
6.7800000e+00 5.9700000e+00 0.0000000e+00 
6.7800000e+00 5.9900000e+00 0.0000000e+00 
6.7800000e+00 6.0100000e+00 0.0000000e+00 
6.7800000e+00 6.0300000e+00 0.0000000e+00 
6.8066667e+00 5.9700000e+00 0.0000000e+00 
6.8066667e+00 5.9900000e+00 0.0000000e+00 
6.8066667e+00 6.0100000e+00 0.0000000e+00 
6.8066667e+00 6.0300000e+00 0.0000000e+00 
6.8333333e+00 5.9700000e+00 0.0000000e+00 
6.8333333e+00 5.9900000e+00 0.0000000e+00 
6.8333333e+00 6.0100000e+00 0.0000000e+00 
6.8333333e+00 6.0300000e+00 0.0000000e+00 
6.8600000e+00 5.9700000e+00 0.0000000e+00 
6.8600000e+00 5.9900000e+00 0.0000000e+00 
6.8600000e+00 6.0100000e+00 0.0000000e+00 
6.8600000e+00 6.0300000e+00 0.0000000e+00 
6.8866667e+00 5.9700000e+00 0.0000000e+00 
6.8866667e+00 5.9900000e+00 0.0000000e+00 
6.8866667e+00 6.0100000e+00 0.0000000e+00 
6.8866667e+00 6.0300000e+00 0.0000000e+00 
6.9133333e+00 5.9700000e+00 0.0000000e+00 
6.9133333e+00 5.9900000e+00 0.0000000e+00 
6.9133333e+00 6.0100000e+00 0.0000000e+00 
6.9133333e+00 6.0300000e+00 0.0000000e+00 
6.9400000e+00 5.9700000e+00 0.0000000e+00 
6.9400000e+00 5.9900000e+00 0.0000000e+00 
6.9400000e+00 6.0100000e+00 0.0000000e+00 
6.9400000e+00 6.0300000e+00 0.0000000e+00 
6.9666667e+00 5.9700000e+00 0.0000000e+00 
6.9666667e+00 5.9900000e+00 0.0000000e+00 
6.9666667e+00 6.0100000e+00 0.0000000e+00 
6.9666667e+00 6.0300000e+00 0.0000000e+00 
6.9933333e+00 5.9700000e+00 0.0000000e+00 
6.9933333e+00 5.9900000e+00 0.0000000e+00 
6.9933333e+00 6.0100000e+00 0.0000000e+00 
6.9933333e+00 6.0300000e+00 0.0000000e+00 
7.0200000e+00 5.9700000e+00 0.0000000e+00 
7.0200000e+00 5.9900000e+00 0.0000000e+00 
[...]
POINT_DATA 604
FIELD FieldData 2
DISPLACEMENT 3 604  float
0.0000000e+00 0.0000000e+00 0.0000000e+00 
0.0000000e+00 0.0000000e+00 0.0000000e+00 
-6.0984724e-07 -3.6729306e-07 0.0000000e+00 
-1.9894788e-07 -2.3750510e-07 0.0000000e+00 
0.0000000e+00 0.0000000e+00 0.0000000e+00 
1.8637461e-07 -2.3724559e-07 0.0000000e+00 
-1.2310493e-06 -1.1591227e-06 0.0000000e+00 
-4.1638046e-07 -1.0645247e-06 0.0000000e+00 
0.0000000e+00 0.0000000e+00 0.0000000e+00 
6.0220594e-07 -3.6214887e-07 0.0000000e+00 
3.9853440e-07 -1.0714511e-06 0.0000000e+00 
-1.8432938e-06 -2.5437594e-06 0.0000000e+00 
1.2140710e-06 -1.1869737e-06 0.0000000e+00 
-6.2091845e-07 -2.4347187e-06 0.0000000e+00 
5.9670303e-07 -2.4358066e-06 0.0000000e+00 
1.8188190e-06 -2.5384060e-06 0.0000000e+00 
-2.4454187e-06 -4.4303091e-06 0.0000000e+00 
-8.2415302e-07 -4.3368338e-06 0.0000000e+00 
7.9296672e-07 -4.3430351e-06 0.0000000e+00 
2.4140836e-06 -4.4575123e-06 0.0000000e+00 
-3.0379888e-06 -6.8777027e-06 0.0000000e+00 
-1.0244294e-06 -6.7723289e-06 0.0000000e+00 
9.8560450e-07 -6.7726078e-06 0.0000000e+00 
3.0003129e-06 -6.8718751e-06 0.0000000e+00 
-3.6202917e-06 -9.8117415e-06 0.0000000e+00 
-1.2221713e-06 -9.7205946e-06 0.0000000e+00 
1.1746029e-06 -9.7289123e-06 0.0000000e+00 
3.5781996e-06 -9.8392401e-06 0.0000000e+00 
-4.1958951e-06 -1.3273943e-05 0.0000000e+00 
-1.4119534e-06 -1.3184293e-05 0.0000000e+00 
1.3654345e-06 -1.3192626e-05 0.0000000e+00 
4.1443007e-06 -1.3301234e-05 0.0000000e+00 
-4.7603461e-06 -1.7255657e-05 0.0000000e+00 
-1.6038290e-06 -1.7155248e-05 0.0000000e+00 
1.5480460e-06 -1.7155574e-05 0.0000000e+00 
4.7032790e-06 -1.7250151e-05 0.0000000e+00 
-5.3165497e-06 -2.1700162e-05 0.0000000e+00 
-1.7924824e-06 -2.1614526e-05 0.0000000e+00 
1.7278329e-06 -2.1620665e-05 0.0000000e+00 
5.2523482e-06 -2.1726951e-05 0.0000000e+00 
-5.8646462e-06 -2.6663633e-05 0.0000000e+00 
-1.9779400e-06 -2.6566290e-05 0.0000000e+00 
1.9048049e-06 -2.6567521e-05 0.0000000e+00 
5.7914833e-06 -2.6658848e-05 0.0000000e+00 
-6.4036492e-06 -3.2074778e-05 0.0000000e+00 
-2.1606487e-06 -3.1992328e-05 0.0000000e+00 
2.0785476e-06 -3.1998488e-05 0.0000000e+00 
6.3217895e-06 -3.2101689e-05 0.0000000e+00 
-6.9341720e-06 -3.7988546e-05 0.0000000e+00 
-2.3405145e-06 -3.7894445e-05 0.0000000e+00 
2.2492023e-06 -3.7895759e-05 0.0000000e+00 
6.8427678e-06 -3.7984095e-05 0.0000000e+00 
-7.4557980e-06 -4.4334472e-05 0.0000000e+00 
-2.5176813e-06 -4.4255075e-05 0.0000000e+00 
2.4166561e-06 -4.4261246e-05 0.0000000e+00 
7.3549585e-06 -4.4361312e-05 0.0000000e+00 
-7.9690382e-06 -5.1166838e-05 0.0000000e+00 
-2.6920433e-06 -5.1075975e-05 0.0000000e+00 
2.5810650e-06 -5.1077398e-05 0.0000000e+00 
7.8579679e-06 -5.1162824e-05 0.0000000e+00 
-8.4735546e-06 -5.8416191e-05 0.0000000e+00 
-2.8637291e-06 -5.8339849e-05 0.0000000e+00 
2.7423307e-06 -5.8346077e-05 0.0000000e+00 
8.3522609e-06 -5.8443095e-05 0.0000000e+00 
-8.9697328e-06 -6.6136066e-05 0.0000000e+00 
-3.0326579e-06 -6.6048421e-05 0.0000000e+00 
2.9005869e-06 -6.6049982e-05 0.0000000e+00 
8.8375720e-06 -6.6132564e-05 0.0000000e+00 
-9.4573740e-06 -7.4257902e-05 0.0000000e+00 
-3.1989215e-06 -7.4184628e-05 0.0000000e+00 
3.0557704e-06 -7.4190965e-05 0.0000000e+00 
9.3142281e-06 -7.4285033e-05 0.0000000e+00 
-9.9367192e-06 -8.2834641e-05 0.0000000e+00 
-3.3624630e-06 -8.2750205e-05 0.0000000e+00 
3.2079932e-06 -8.2751938e-05 0.0000000e+00 
9.7821106e-06 -8.2831755e-05 0.0000000e+00 
-1.0407761e-05 -9.1798592e-05 0.0000000e+00 
-3.5233509e-06 -9.1728299e-05 0.0000000e+00 
3.3572134e-06 -9.1734764e-05 0.0000000e+00 
1.0241350e-05 -9.1825879e-05 0.0000000e+00 
-1.0870070e-05 -1.0120210e-04 0.0000000e+00 
-3.6818345e-06 -1.0112103e-04 0.0000000e+00 
3.5032377e-06 -1.0112219e-04 0.0000000e+00 
1.0692499e-05 -1.0119948e-04 0.0000000e+00 
-1.1323374e-05 -1.1097761e-04 0.0000000e+00 
-3.8380401e-06 -1.1090959e-04 0.0000000e+00 
3.6459544e-06 -1.1091825e-04 0.0000000e+00 
1.1135945e-05 -1.1100578e-04 0.0000000e+00 
-1.1770600e-05 -1.2116306e-04 0.0000000e+00 
-3.9869845e-06 -1.2109662e-04 0.0000000e+00 
3.7904460e-06 -1.2110537e-04 0.0000000e+00 
1.1568880e-05 -1.2119158e-04 0.0000000e+00 
-1.2207459e-05 -1.3175110e-04 0.0000000e+00 
-4.1379152e-06 -1.3167472e-04 0.0000000e+00 
3.9274589e-06 -1.3167626e-04 0.0000000e+00 
1.1995824e-05 -1.3174960e-04 0.0000000e+00 
-1.2637350e-05 -1.4268918e-04 0.0000000e+00 
-4.2857957e-06 -1.4262672e-04 0.0000000e+00 
4.0621075e-06 -1.4263380e-04 0.0000000e+00 
1.2413471e-05 -1.4271831e-04 0.0000000e+00 
-1.3059453e-05 -1.5403022e-04 0.0000000e+00 
-4.4308517e-06 -1.5395674e-04 0.0000000e+00 
4.1942056e-06 -1.5395932e-04 0.0000000e+00 
1.2822783e-05 -1.5402991e-04 0.0000000e+00 
-1.3473839e-05 -1.6570721e-04 0.0000000e+00 
-4.5732520e-06 -1.6564801e-04 0.0000000e+00 
4.3236098e-06 -1.6565543e-04 0.0000000e+00 
1.3223762e-05 -1.6573760e-04 0.0000000e+00 
-1.3880024e-05 -1.7777317e-04 0.0000000e+00 
-4.7131386e-06 -1.7770273e-04 0.0000000e+00 
4.4502253e-06 -1.7770561e-04 0.0000000e+00 
1.3617039e-05 -1.7777367e-04 0.0000000e+00 
-1.4278680e-05 -1.9016055e-04 0.0000000e+00 
-4.8503852e-06 -1.9010450e-04 0.0000000e+00 
4.5742019e-06 -1.9011227e-04 0.0000000e+00 
1.4002004e-05 -1.9019206e-04 0.0000000e+00 
-1.4669192e-05 -2.0292312e-04 0.0000000e+00 
-4.9851426e-06 -2.0285570e-04 0.0000000e+00 
4.6954359e-06 -2.0285890e-04 0.0000000e+00 
1.4379421e-05 -2.0292448e-04 0.0000000e+00 
-1.5052317e-05 -2.1599283e-04 0.0000000e+00 
-5.1172708e-06 -2.1593994e-04 0.0000000e+00 
4.8140899e-06 -2.1594809e-04 0.0000000e+00 
1.4748597e-05 -2.1602556e-04 0.0000000e+00 
-1.5427348e-05 -2.2942420e-04 0.0000000e+00 
-5.2469447e-06 -2.2935978e-04 0.0000000e+00 
4.9300368e-06 -2.2936331e-04 0.0000000e+00 
1.5110382e-05 -2.2942646e-04 0.0000000e+00 
-1.5795123e-05 -2.4314858e-04 0.0000000e+00 
-5.3740031e-06 -2.4309882e-04 0.0000000e+00 
5.0434585e-06 -2.4310738e-04 0.0000000e+00 
1.5464002e-05 -2.4318261e-04 0.0000000e+00 
-1.6154883e-05 -2.5722130e-04 0.0000000e+00 
-5.4986297e-06 -2.5715986e-04 0.0000000e+00 
5.1542200e-06 -2.5716373e-04 0.0000000e+00 
1.5810361e-05 -2.5722450e-04 0.0000000e+00 
-1.6507554e-05 -2.7157317e-04 0.0000000e+00 
-5.6206686e-06 -2.7152643e-04 0.0000000e+00 
5.2624962e-06 -2.7153537e-04 0.0000000e+00 
1.6148592e-05 -2.7160828e-04 0.0000000e+00 
-1.6851783e-05 -2.8626025e-04 0.0000000e+00 
-5.7406093e-06 -2.8620195e-04 0.0000000e+00 
5.3678485e-06 -2.8620532e-04 0.0000000e+00 
1.6480192e-05 -2.8626395e-04 0.0000000e+00 
-1.7188089e-05 -3.0121214e-04 0.0000000e+00 
-5.8583773e-06 -3.0116759e-04 0.0000000e+00 
5.4703570e-06 -3.0117916e-04 0.0000000e+00 
1.6804701e-05 -3.0124902e-04 0.0000000e+00 
-1.7518981e-05 -3.1647042e-04 0.0000000e+00 
-5.9686988e-06 -3.1642755e-04 0.0000000e+00 
5.5753898e-06 -3.1643927e-04 0.0000000e+00 
1.7119739e-05 -3.1650821e-04 0.0000000e+00 
-1.7839903e-05 -3.3202915e-04 0.0000000e+00 
-6.0815694e-06 -3.3197516e-04 0.0000000e+00 
5.6729434e-06 -3.3197913e-04 0.0000000e+00 
1.7430064e-05 -3.3203430e-04 0.0000000e+00 
-1.8154961e-05 -3.4783202e-04 0.0000000e+00 
-6.1914764e-06 -3.4779311e-04 0.0000000e+00 
5.7685951e-06 -3.4780321e-04 0.0000000e+00 
1.7731641e-05 -3.4787102e-04 0.0000000e+00 
-1.8462784e-05 -3.6393874e-04 0.0000000e+00 
-6.2988077e-06 -3.6388737e-04 0.0000000e+00 
5.8620003e-06 -3.6389251e-04 0.0000000e+00 
1.8025983e-05 -3.6394523e-04 0.0000000e+00 
-1.8763841e-05 -3.8027661e-04 0.0000000e+00 
-6.4036405e-06 -3.8024084e-04 0.0000000e+00 
5.9530965e-06 -3.8025139e-04 0.0000000e+00 
1.8312671e-05 -3.8031730e-04 0.0000000e+00 
-1.9057283e-05 -3.9690612e-04 0.0000000e+00 
-6.5062226e-06 -3.9685751e-04 0.0000000e+00 
6.0416861e-06 -3.9686300e-04 0.0000000e+00 
1.8592701e-05 -3.9691348e-04 0.0000000e+00 
-1.9344097e-05 -4.1375338e-04 0.0000000e+00 
-6.6063446e-06 -4.1372059e-04 0.0000000e+00 
6.1279931e-06 -4.1373157e-04 0.0000000e+00 
1.8865130e-05 -4.1379549e-04 0.0000000e+00 
-1.9623416e-05 -4.3088020e-04 0.0000000e+00 
-6.7042355e-06 -4.3083433e-04 0.0000000e+00 
6.2118393e-06 -4.3084016e-04 0.0000000e+00 
1.9130979e-05 -4.3088844e-04 0.0000000e+00 
-1.9896196e-05 -4.4821171e-04 0.0000000e+00 
-6.7996993e-06 -4.4818186e-04 0.0000000e+00 
6.2934366e-06 -4.4819326e-04 0.0000000e+00 
1.9389336e-05 -4.4825522e-04 0.0000000e+00 
-2.0161595e-05 -4.6581085e-04 0.0000000e+00 
-6.8929644e-06 -4.6576768e-04 0.0000000e+00 
6.3726087e-06 -4.6577384e-04 0.0000000e+00 
1.9641204e-05 -4.6581995e-04 0.0000000e+00 
-2.0420547e-05 -4.8360181e-04 0.0000000e+00 
-6.9838384e-06 -4.8357485e-04 0.0000000e+00 
6.4495663e-06 -4.8358666e-04 0.0000000e+00 
1.9885695e-05 -4.8364670e-04 0.0000000e+00 
-2.0672259e-05 -5.0164863e-04 0.0000000e+00 
-7.0725348e-06 -5.0160813e-04 0.0000000e+00 
6.5241501e-06 -5.0161461e-04 0.0000000e+00 
2.0123776e-05 -5.0165860e-04 0.0000000e+00 
-2.0917673e-05 -5.1987479e-04 0.0000000e+00 
-7.1588917e-06 -5.1985053e-04 0.0000000e+00 
6.5965426e-06 -5.1986270e-04 0.0000000e+00 
2.0354556e-05 -5.1992070e-04 0.0000000e+00 
-2.1155424e-05 -5.3834515e-04 0.0000000e+00 
-7.2434456e-06 -5.3830749e-04 0.0000000e+00 
6.6662670e-06 -5.3831334e-04 0.0000000e+00 
2.0579581e-05 -5.3835546e-04 0.0000000e+00 
-2.1385904e-05 -5.5698189e-04 0.0000000e+00 
-7.3261535e-06 -5.5695938e-04 0.0000000e+00 
6.7333722e-06 -5.5697440e-04 0.0000000e+00 
2.0798522e-05 -5.5702947e-04 0.0000000e+00 
-2.1612143e-05 -5.7583349e-04 0.0000000e+00 
-7.4010736e-06 -5.7581247e-04 0.0000000e+00 
6.8039302e-06 -5.7582762e-04 0.0000000e+00 
2.1008526e-05 -5.7588189e-04 0.0000000e+00 
-2.1829082e-05 -5.9489476e-04 0.0000000e+00 
-7.4794609e-06 -5.9486088e-04 0.0000000e+00 
6.8666728e-06 -5.9486723e-04 0.0000000e+00 
2.1214940e-05 -5.9490627e-04 0.0000000e+00 
-2.2041084e-05 -6.1410412e-04 0.0000000e+00 
-7.5551601e-06 -6.1408675e-04 0.0000000e+00 
6.9278540e-06 -6.1409993e-04 0.0000000e+00 
2.1413509e-05 -6.1415342e-04 0.0000000e+00 
-2.2246977e-05 -6.3353007e-04 0.0000000e+00 
-7.6285438e-06 -6.3349838e-04 0.0000000e+00 
6.9871635e-06 -6.3350595e-04 0.0000000e+00 
2.1605624e-05 -6.3354279e-04 0.0000000e+00 
-2.2446961e-05 -6.5309298e-04 0.0000000e+00 
-7.6997788e-06 -6.5307830e-04 0.0000000e+00 
7.0444662e-06 -6.5309185e-04 0.0000000e+00 
2.1791184e-05 -6.5314371e-04 0.0000000e+00 
-2.2640468e-05 -6.7286189e-04 0.0000000e+00 
-7.7690808e-06 -6.7283255e-04 0.0000000e+00 
7.0996245e-06 -6.7284039e-04 0.0000000e+00 
2.1970978e-05 -6.7287527e-04 0.0000000e+00 
-2.2828273e-05 -6.9275627e-04 0.0000000e+00 
-7.8362987e-06 -6.9274410e-04 0.0000000e+00 
7.1528212e-06 -6.9275797e-04 0.0000000e+00 
2.2144347e-05 -6.9280809e-04 0.0000000e+00 
-2.3009798e-05 -7.1284632e-04 0.0000000e+00 
-7.9016244e-06 -7.1281926e-04 0.0000000e+00 
7.2039487e-06 -7.1282736e-04 0.0000000e+00 
2.2312094e-05 -7.1286035e-04 0.0000000e+00 
-2.3185788e-05 -7.3305083e-04 0.0000000e+00 
-7.9649220e-06 -7.3304107e-04 0.0000000e+00 
7.2531749e-06 -7.3305525e-04 0.0000000e+00 
2.2473606e-05 -7.3310368e-04 0.0000000e+00 
-2.3355680e-05 -7.5344094e-04 0.0000000e+00 
-8.0263840e-06 -7.5341611e-04 0.0000000e+00 
7.3003973e-06 -7.5342444e-04 0.0000000e+00 
2.2629671e-05 -7.5345560e-04 0.0000000e+00 
-2.3520213e-05 -7.7393485e-04 0.0000000e+00 
-8.0858741e-06 -7.7392743e-04 0.0000000e+00 
7.3457827e-06 -7.7394192e-04 0.0000000e+00 
2.2779697e-05 -7.7398872e-04 0.0000000e+00 
-2.3678855e-05 -7.9460462e-04 0.0000000e+00 
-8.1435726e-06 -7.9458195e-04 0.0000000e+00 
7.3892460e-06 -7.9459052e-04 0.0000000e+00 
2.2924440e-05 -7.9461992e-04 0.0000000e+00 
-2.3832374e-05 -8.1536805e-04 0.0000000e+00 
-8.1993683e-06 -8.1536275e-04 0.0000000e+00 
7.4309267e-06 -8.1537750e-04 0.0000000e+00 
2.3063287e-05 -8.1542257e-04 0.0000000e+00 
-2.3979584e-05 -8.3629786e-04 0.0000000e+00 
-8.2537996e-06 -8.3627750e-04 0.0000000e+00 
7.4703883e-06 -8.3628527e-04 0.0000000e+00 
2.3197643e-05 -8.3631322e-04 0.0000000e+00 
-2.4120672e-05 -8.5731075e-04 0.0000000e+00 
-8.3068777e-06 -8.5730653e-04 0.0000000e+00 
7.5076221e-06 -8.5732423e-04 0.0000000e+00 
2.3327484e-05 -8.5736664e-04 0.0000000e+00 
-2.4259167e-05 -8.7846142e-04 0.0000000e+00 
-8.3521092e-06 -8.7845838e-04 0.0000000e+00 
7.5493055e-06 -8.7847617e-04 0.0000000e+00 
2.3449474e-05 -8.7851795e-04 0.0000000e+00 
-2.4389569e-05 -8.9974585e-04 0.0000000e+00 
-8.4017627e-06 -8.9972842e-04 0.0000000e+00 
7.5831501e-06 -8.9973656e-04 0.0000000e+00 
2.3569502e-05 -8.9976204e-04 0.0000000e+00 
-2.4516484e-05 -9.2109890e-04 0.0000000e+00 
-8.4491515e-06 -9.2109902e-04 0.0000000e+00 
7.6159652e-06 -9.2111453e-04 0.0000000e+00 
2.3683147e-05 -9.2115603e-04 0.0000000e+00 
-2.4638818e-05 -9.4259682e-04 0.0000000e+00 
-8.4946475e-06 -9.4258099e-04 0.0000000e+00 
7.6474646e-06 -9.4259034e-04 0.0000000e+00 
2.3791698e-05 -9.4261403e-04 0.0000000e+00 
-2.4756618e-05 -9.6415486e-04 0.0000000e+00 
-8.5384510e-06 -9.6415711e-04 0.0000000e+00 
7.6774614e-06 -9.6417292e-04 0.0000000e+00 
2.3895256e-05 -9.6421323e-04 0.0000000e+00 
-2.4869411e-05 -9.8584984e-04 0.0000000e+00 
-8.5807757e-06 -9.8583575e-04 0.0000000e+00 
7.7058396e-06 -9.8584530e-04 0.0000000e+00 
2.3994475e-05 -9.8586747e-04 0.0000000e+00 
-2.4977874e-05 -1.0075960e-03 0.0000000e+00 
-8.6214651e-06 -1.0076002e-03 0.0000000e+00 
7.7327626e-06 -1.0076162e-03 0.0000000e+00 
2.4088811e-05 -1.0076552e-03 0.0000000e+00 
-2.5081503e-05 -1.0294713e-03 0.0000000e+00 
-8.6607085e-06 -1.0294590e-03 0.0000000e+00 
7.7581353e-06 -1.0294687e-03 0.0000000e+00 
2.4178941e-05 -1.0294894e-03 0.0000000e+00 
-2.5180936e-05 -1.0513894e-03 0.0000000e+00 
-8.6983597e-06 -1.0513954e-03 0.0000000e+00 
7.7821068e-06 -1.0514117e-03 0.0000000e+00 
2.4264342e-05 -1.0514495e-03 0.0000000e+00 
-2.5275682e-05 -1.0734292e-03 0.0000000e+00 
-8.7346082e-06 -1.0734185e-03 0.0000000e+00 
7.8045772e-06 -1.0734284e-03 0.0000000e+00 
2.4345672e-05 -1.0734476e-03 0.0000000e+00 
-2.5366350e-05 -1.0955034e-03 0.0000000e+00 
-8.7693055e-06 -1.0955113e-03 0.0000000e+00 
7.8256956e-06 -1.0955278e-03 0.0000000e+00 
2.4422417e-05 -1.0955644e-03 0.0000000e+00 
-2.5452492e-05 -1.1176921e-03 0.0000000e+00 
-8.8026243e-06 -1.1176830e-03 0.0000000e+00 
7.8453737e-06 -1.1176931e-03 0.0000000e+00 
2.4495192e-05 -1.1177110e-03 0.0000000e+00 
-2.5534725e-05 -1.1399075e-03 0.0000000e+00 
-8.8344449e-06 -1.1399169e-03 0.0000000e+00 
7.8637303e-06 -1.1399337e-03 0.0000000e+00 
2.4563458e-05 -1.1399689e-03 0.0000000e+00 
-2.5611908e-05 -1.1622303e-03 0.0000000e+00 
-8.8653258e-06 -1.1622230e-03 0.0000000e+00 
7.8802900e-06 -1.1622321e-03 0.0000000e+00 
2.4628520e-05 -1.1622489e-03 0.0000000e+00 
-2.5683982e-05 -1.1845712e-03 0.0000000e+00 
-8.8952967e-06 -1.1845812e-03 0.0000000e+00 
7.8950026e-06 -1.1846011e-03 0.0000000e+00 
2.4690506e-05 -1.1846339e-03 0.0000000e+00 
-2.5754957e-05 -1.2069915e-03 0.0000000e+00 
-8.9172311e-06 -1.2070024e-03 0.0000000e+00 
7.9151395e-06 -1.2070224e-03 0.0000000e+00 
2.4745552e-05 -1.2070548e-03 0.0000000e+00 
-2.5818781e-05 -1.2294882e-03 0.0000000e+00 
-8.9445233e-06 -1.2294831e-03 0.0000000e+00 
7.9272801e-06 -1.2294924e-03 0.0000000e+00 
2.4799991e-05 -1.2295073e-03 0.0000000e+00 
-2.5880191e-05 -1.2519916e-03 0.0000000e+00 
-8.9698740e-06 -1.2520053e-03 0.0000000e+00 
7.9388093e-06 -1.2520227e-03 0.0000000e+00 
2.4849174e-05 -1.2520552e-03 0.0000000e+00 
-2.5938282e-05 -1.2745863e-03 0.0000000e+00 
-8.9936361e-06 -1.2745823e-03 0.0000000e+00 
7.9494410e-06 -1.2745929e-03 0.0000000e+00 
2.4894199e-05 -1.2746062e-03 0.0000000e+00 
-2.5992751e-05 -1.2971811e-03 0.0000000e+00 
-9.0160710e-06 -1.2971965e-03 0.0000000e+00 
7.9589223e-06 -1.2972141e-03 0.0000000e+00 
2.4935430e-05 -1.2972458e-03 0.0000000e+00 
-2.6043411e-05 -1.3198612e-03 0.0000000e+00 
-9.0373549e-06 -1.3198585e-03 0.0000000e+00 
7.9671559e-06 -1.3198692e-03 0.0000000e+00 
2.4973253e-05 -1.3198813e-03 0.0000000e+00 
-2.6090622e-05 -1.3425343e-03 0.0000000e+00 
-9.0573749e-06 -1.3425512e-03 0.0000000e+00 
7.9742663e-06 -1.3425690e-03 0.0000000e+00 
2.5007377e-05 -1.3425997e-03 0.0000000e+00 
-2.6134217e-05 -1.3652869e-03 0.0000000e+00 
-9.0762743e-06 -1.3652854e-03 0.0000000e+00 
7.9801929e-06 -1.3652962e-03 0.0000000e+00 
2.5038185e-05 -1.3653071e-03 0.0000000e+00 
-2.6174489e-05 -1.3880258e-03 0.0000000e+00 
-9.0939655e-06 -1.3880441e-03 0.0000000e+00 
7.9850394e-06 -1.3880620e-03 0.0000000e+00 
2.5065466e-05 -1.3880917e-03 0.0000000e+00 
-2.6211329e-05 -1.4108385e-03 0.0000000e+00 
-9.1105877e-06 -1.4108383e-03 0.0000000e+00 
7.9887551e-06 -1.4108491e-03 0.0000000e+00 
2.5089554e-05 -1.4108589e-03 0.0000000e+00 
-2.6244987e-05 -1.4336313e-03 0.0000000e+00 
-9.1260628e-06 -1.4336509e-03 0.0000000e+00 
7.9914380e-06 -1.4336689e-03 0.0000000e+00 
2.5110305e-05 -1.4336977e-03 0.0000000e+00 
-2.6275441e-05 -1.4564924e-03 0.0000000e+00 
-9.1405093e-06 -1.4564933e-03 0.0000000e+00 
7.9930648e-06 -1.4565042e-03 0.0000000e+00 
2.5127976e-05 -1.4565129e-03 0.0000000e+00 
-2.6302935e-05 -1.4793278e-03 0.0000000e+00 
-9.1538900e-06 -1.4793485e-03 0.0000000e+00 
7.9936962e-06 -1.4793666e-03 0.0000000e+00 
2.5142451e-05 -1.4793943e-03 0.0000000e+00 
-2.6326739e-05 -1.5022264e-03 0.0000000e+00 
-9.1667382e-06 -1.5022286e-03 0.0000000e+00 
7.9929055e-06 -1.5022384e-03 0.0000000e+00 
2.5154702e-05 -1.5022464e-03 0.0000000e+00 
-2.6346340e-05 -1.5250930e-03 0.0000000e+00 
-9.1791945e-06 -1.5251135e-03 0.0000000e+00 
7.9905480e-06 -1.5251349e-03 0.0000000e+00 
2.5165398e-05 -1.5251604e-03 0.0000000e+00 
-2.6366523e-05 -1.5479950e-03 0.0000000e+00 
-9.1835589e-06 -1.5480162e-03 0.0000000e+00 
7.9945505e-06 -1.5480376e-03 0.0000000e+00 
2.5169982e-05 -1.5480628e-03 0.0000000e+00 
-2.6380870e-05 -1.5709307e-03 0.0000000e+00 
-9.1942830e-06 -1.5709342e-03 0.0000000e+00 
7.9904262e-06 -1.5709441e-03 0.0000000e+00 
2.5175362e-05 -1.5709506e-03 0.0000000e+00 
-2.6394105e-05 -1.5938265e-03 0.0000000e+00 
-9.2035844e-06 -1.5938499e-03 0.0000000e+00 
7.9861231e-06 -1.5938683e-03 0.0000000e+00 
2.5177042e-05 -1.5938941e-03 0.0000000e+00 
-2.6405832e-05 -1.6167748e-03 0.0000000e+00 
-9.2117556e-06 -1.6167789e-03 0.0000000e+00 
7.9814531e-06 -1.6167900e-03 0.0000000e+00 
2.5175684e-05 -1.6167954e-03 0.0000000e+00 
-2.6415256e-05 -1.6396796e-03 0.0000000e+00 
-9.2191892e-06 -1.6397041e-03 0.0000000e+00 
7.9760561e-06 -1.6397226e-03 0.0000000e+00 
2.5172297e-05 -1.6397480e-03 0.0000000e+00 
-2.6422749e-05 -1.6626336e-03 0.0000000e+00 
-9.2260038e-06 -1.6626383e-03 0.0000000e+00 
7.9699430e-06 -1.6626494e-03 0.0000000e+00 
2.5166766e-05 -1.6626540e-03 0.0000000e+00 
-2.6428220e-05 -1.6855397e-03 0.0000000e+00 
-9.2321859e-06 -1.6855650e-03 0.0000000e+00 
7.9631566e-06 -1.6855835e-03 0.0000000e+00 
2.5159412e-05 -1.6856084e-03 0.0000000e+00 
-2.6432068e-05 -1.7084920e-03 0.0000000e+00 
-9.2378168e-06 -1.7084973e-03 0.0000000e+00 
7.9557500e-06 -1.7085084e-03 0.0000000e+00 
2.5150088e-05 -1.7085123e-03 0.0000000e+00 
-2.6434114e-05 -1.7313929e-03 0.0000000e+00 
-9.2429086e-06 -1.7314188e-03 0.0000000e+00 
7.9477383e-06 -1.7314375e-03 0.0000000e+00 
2.5139217e-05 -1.7314618e-03 0.0000000e+00 
-2.6434826e-05 -1.7543373e-03 0.0000000e+00 
-9.2475351e-06 -1.7543431e-03 0.0000000e+00 
7.9391855e-06 -1.7543542e-03 0.0000000e+00 
2.5126573e-05 -1.7543576e-03 0.0000000e+00 
-2.6433955e-05 -1.7772273e-03 0.0000000e+00 
-9.2517166e-06 -1.7772538e-03 0.0000000e+00 
7.9300952e-06 -1.7772725e-03 0.0000000e+00 
2.5112657e-05 -1.7772964e-03 0.0000000e+00 
-2.6432065e-05 -1.8001585e-03 0.0000000e+00 
-9.2555009e-06 -1.8001647e-03 0.0000000e+00 
7.9205599e-06 -1.8001758e-03 0.0000000e+00 
2.5097139e-05 -1.8001787e-03 0.0000000e+00 
-2.6428878e-05 -1.8230330e-03 0.0000000e+00 
-9.2589487e-06 -1.8230597e-03 0.0000000e+00 
7.9105382e-06 -1.8230784e-03 0.0000000e+00 
2.5080551e-05 -1.8231017e-03 0.0000000e+00 
-2.6424220e-05 -1.8459467e-03 0.0000000e+00 
-9.2625385e-06 -1.8459535e-03 0.0000000e+00 
7.8996971e-06 -1.8459632e-03 0.0000000e+00 
2.5063287e-05 -1.8459660e-03 0.0000000e+00 
-2.6416963e-05 -1.8688008e-03 0.0000000e+00 
-9.2665340e-06 -1.8688265e-03 0.0000000e+00 
7.8877557e-06 -1.8688484e-03 0.0000000e+00 
2.5046734e-05 -1.8688700e-03 0.0000000e+00 