# vtk DataFile Version 4.0
vtk output
ASCII
DATASET UNSTRUCTURED_GRID
POINTS 604 float
5.5000000e+00 5.9700000e+00 0.0000000e+00 
5.5000000e+00 5.9900000e+00 0.0000000e+00 
5.5266667e+00 5.9700000e+00 0.0000000e+00 
5.5266667e+00 5.9900000e+00 0.0000000e+00 
5.5000000e+00 6.0100000e+00 0.0000000e+00 
5.5266667e+00 6.0100000e+00 0.0000000e+00 
5.5533333e+00 5.9700000e+00 0.0000000e+00 
5.5533333e+00 5.9900000e+00 0.0000000e+00 
5.5000000e+00 6.0300000e+00 0.0000000e+00 
5.5266667e+00 6.0300000e+00 0.0000000e+00 
5.5533333e+00 6.0100000e+00 0.0000000e+00 
5.5800000e+00 5.9700000e+00 0.0000000e+00 
5.5533333e+00 6.0300000e+00 0.0000000e+00 
5.5800000e+00 5.9900000e+00 0.0000000e+00 
5.5800000e+00 6.0100000e+00 0.0000000e+00 
5.5800000e+00 6.0300000e+00 0.0000000e+00 
5.6066667e+00 5.9700000e+00 0.0000000e+00 
5.6066667e+00 5.9900000e+00 0.0000000e+00 
5.6066667e+00 6.0100000e+00 0.0000000e+00 
5.6066667e+00 6.0300000e+00 0.0000000e+00 
5.6333333e+00 5.9700000e+00 0.0000000e+00 
5.6333333e+00 5.9900000e+00 0.0000000e+00 
5.6333333e+00 6.0100000e+00 0.0000000e+00 
5.6333333e+00 6.0300000e+00 0.0000000e+00 
5.6600000e+00 5.9700000e+00 0.0000000e+00 
5.6600000e+00 5.9900000e+00 0.0000000e+00 
5.6600000e+00 6.0100000e+00 0.0000000e+00 
5.6600000e+00 6.0300000e+00 0.0000000e+00 
5.6866667e+00 5.9700000e+00 0.0000000e+00 
5.6866667e+00 5.9900000e+00 0.0000000e+00 
5.6866667e+00 6.0100000e+00 0.0000000e+00 
5.6866667e+00 6.0300000e+00 0.0000000e+00 
5.7133333e+00 5.9700000e+00 0.0000000e+00 
5.7133333e+00 5.9900000e+00 0.0000000e+00 
5.7133333e+00 6.0100000e+00 0.0000000e+00 
5.7133333e+00 6.0300000e+00 0.0000000e+00 
5.7400000e+00 5.9700000e+00 0.0000000e+00 
5.7400000e+00 5.9900000e+00 0.0000000e+00 
5.7400000e+00 6.0100000e+00 0.0000000e+00 
5.7400000e+00 6.0300000e+00 0.0000000e+00 
5.7666667e+00 5.9700000e+00 0.0000000e+00 
5.7666667e+00 5.9900000e+00 0.0000000e+00 
5.7666667e+00 6.0100000e+00 0.0000000e+00 
5.7666667e+00 6.0300000e+00 0.0000000e+00 
5.7933333e+00 5.9700000e+00 0.0000000e+00 
5.7933333e+00 5.9900000e+00 0.0000000e+00 
5.7933333e+00 6.0100000e+00 0.0000000e+00 
5.7933333e+00 6.0300000e+00 0.0000000e+00 
5.8200000e+00 5.9700000e+00 0.0000000e+00 
5.8200000e+00 5.9900000e+00 0.0000000e+00 
5.8200000e+00 6.0100000e+00 0.0000000e+00 
5.8200000e+00 6.0300000e+00 0.0000000e+00 
5.8466667e+00 5.9700000e+00 0.0000000e+00 
5.8466667e+00 5.9900000e+00 0.0000000e+00 
5.8466667e+00 6.0100000e+00 0.0000000e+00 
5.8466667e+00 6.0300000e+00 0.0000000e+00 
5.8733333e+00 5.9700000e+00 0.0000000e+00 
5.8733333e+00 5.9900000e+00 0.0000000e+00 
5.8733333e+00 6.0100000e+00 0.0000000e+00 
5.8733333e+00 6.0300000e+00 0.0000000e+00 
5.9000000e+00 5.9700000e+00 0.0000000e+00 
5.9000000e+00 5.9900000e+00 0.0000000e+00 
5.9000000e+00 6.0100000e+00 0.0000000e+00 
5.9000000e+00 6.0300000e+00 0.0000000e+00 
5.9266667e+00 5.9700000e+00 0.0000000e+00 
5.9266667e+00 5.9900000e+00 0.0000000e+00 
5.9266667e+00 6.0100000e+00 0.0000000e+00 
5.9266667e+00 6.0300000e+00 0.0000000e+00 
5.9533333e+00 5.9700000e+00 0.0000000e+00 
5.9533333e+00 5.9900000e+00 0.0000000e+00 
5.9533333e+00 6.0100000e+00 0.0000000e+00 
5.9533333e+00 6.0300000e+00 0.0000000e+00 
5.9800000e+00 5.9700000e+00 0.0000000e+00 
5.9800000e+00 5.9900000e+00 0.0000000e+00 
5.9800000e+00 6.0100000e+00 0.0000000e+00 
5.9800000e+00 6.0300000e+00 0.0000000e+00 
6.0066667e+00 5.9700000e+00 0.0000000e+00 
6.0066667e+00 5.9900000e+00 0.0000000e+00 
6.0066667e+00 6.0100000e+00 0.0000000e+00 
6.0066667e+00 6.0300000e+00 0.0000000e+00 
6.0333333e+00 5.9700000e+00 0.0000000e+00 
6.0333333e+00 5.9900000e+00 0.0000000e+00 
6.0333333e+00 6.0100000e+00 0.0000000e+00 
6.0333333e+00 6.0300000e+00 0.0000000e+00 
6.0600000e+00 5.9700000e+00 0.0000000e+00 
6.0600000e+00 5.9900000e+00 0.0000000e+00 
6.0600000e+00 6.0100000e+00 0.0000000e+00 
6.0600000e+00 6.0300000e+00 0.0000000e+00 
6.0866667e+00 5.9700000e+00 0.0000000e+00 
6.0866667e+00 5.9900000e+00 0.0000000e+00 
6.0866667e+00 6.0100000e+00 0.0000000e+00 
6.0866667e+00 6.0300000e+00 0.0000000e+00 
6.1133333e+00 5.9700000e+00 0.0000000e+00 
6.1133333e+00 5.9900000e+00 0.0000000e+00 
6.1133333e+00 6.0100000e+00 0.0000000e+00 
6.1133333e+00 6.0300000e+00 0.0000000e+00 
6.1400000e+00 5.9700000e+00 0.0000000e+00 
6.1400000e+00 5.9900000e+00 0.0000000e+00 
6.1400000e+00 6.0100000e+00 0.0000000e+00 
6.1400000e+00 6.0300000e+00 0.0000000e+00 
6.1666667e+00 5.9700000e+00 0.0000000e+00 
6.1666667e+00 5.9900000e+00 0.0000000e+00 
6.1666667e+00 6.0100000e+00 0.0000000e+00 
6.1666667e+00 6.0300000e+00 0.0000000e+00 
6.1933333e+00 5.9700000e+00 0.0000000e+00 
6.1933333e+00 5.9900000e+00 0.0000000e+00 
6.1933333e+00 6.0100000e+00 0.0000000e+00 
6.1933333e+00 6.0300000e+00 0.0000000e+00 
6.2200000e+00 5.9700000e+00 0.0000000e+00 
6.2200000e+00 5.9900000e+00 0.0000000e+00 
6.2200000e+00 6.0100000e+00 0.0000000e+00 
6.2200000e+00 6.0300000e+00 0.0000000e+00 
6.2466667e+00 5.9700000e+00 0.0000000e+00 
6.2466667e+00 5.9900000e+00 0.0000000e+00 
6.2466667e+00 6.0100000e+00 0.0000000e+00 
6.2466667e+00 6.0300000e+00 0.0000000e+00 
6.2733333e+00 5.9700000e+00 0.0000000e+00 
6.2733333e+00 5.9900000e+00 0.0000000e+00 
6.2733333e+00 6.0100000e+00 0.0000000e+00 
6.2733333e+00 6.0300000e+00 0.0000000e+00 
6.3000000e+00 5.9700000e+00 0.0000000e+00 
6.3000000e+00 5.9900000e+00 0.0000000e+00 
6.3000000e+00 6.0100000e+00 0.0000000e+00 
6.3000000e+00 6.0300000e+00 0.0000000e+00 
6.3266667e+00 5.9700000e+00 0.0000000e+00 
6.3266667e+00 5.9900000e+00 0.0000000e+00 
6.3266667e+00 6.0100000e+00 0.0000000e+00 
6.3266667e+00 6.0300000e+00 0.0000000e+00 
6.3533333e+00 5.9700000e+00 0.0000000e+00 
6.3533333e+00 5.9900000e+00 0.0000000e+00 
6.3533333e+00 6.0100000e+00 0.0000000e+00 
6.3533333e+00 6.0300000e+00 0.0000000e+00 
6.3800000e+00 5.9700000e+00 0.0000000e+00 
6.3800000e+00 5.9900000e+00 0.0000000e+00 
6.3800000e+00 6.0100000e+00 0.0000000e+00 
6.3800000e+00 6.0300000e+00 0.0000000e+00 
6.4066667e+00 5.9700000e+00 0.0000000e+00 
6.4066667e+00 5.9900000e+00 0.0000000e+00 
6.4066667e+00 6.0100000e+00 0.0000000e+00 
6.4066667e+00 6.0300000e+00 0.0000000e+00 
6.4333333e+00 5.9700000e+00 0.0000000e+00 
6.4333333e+00 5.9900000e+00 0.0000000e+00 
6.4333333e+00 6.0100000e+00 0.0000000e+00 
6.4333333e+00 6.0300000e+00 0.0000000e+00 
6.4600000e+00 5.9700000e+00 0.0000000e+00 
6.4600000e+00 5.9900000e+00 0.0000000e+00 
6.4600000e+00 6.0100000e+00 0.0000000e+00 
6.4600000e+00 6.0300000e+00 0.0000000e+00 
6.4866667e+00 5.9700000e+00 0.0000000e+00 
6.4866667e+00 5.9900000e+00 0.0000000e+00 
6.4866667e+00 6.0100000e+00 0.0000000e+00 
6.4866667e+00 6.0300000e+00 0.0000000e+00 
6.5133333e+00 5.9700000e+00 0.0000000e+00 
6.5133333e+00 5.9900000e+00 0.0000000e+00 
6.5133333e+00 6.0100000e+00 0.0000000e+00 
6.5133333e+00 6.0300000e+00 0.0000000e+00 
6.5400000e+00 5.9700000e+00 0.0000000e+00 
6.5400000e+00 5.9900000e+00 0.0000000e+00 
6.5400000e+00 6.0100000e+00 0.0000000e+00 
6.5400000e+00 6.0300000e+00 0.0000000e+00 
6.5666667e+00 5.9700000e+00 0.0000000e+00 
6.5666667e+00 5.9900000e+00 0.0000000e+00 
6.5666667e+00 6.0100000e+00 0.0000000e+00 
6.5666667e+00 6.0300000e+00 0.0000000e+00 
6.5933333e+00 5.9700000e+00 0.0000000e+00 
6.5933333e+00 5.9900000e+00 0.0000000e+00 
6.5933333e+00 6.0100000e+00 0.0000000e+00 
6.5933333e+00 6.0300000e+00 0.0000000e+00 
6.6200000e+00 5.9700000e+00 0.0000000e+00 
6.6200000e+00 5.9900000e+00 0.0000000e+00 
6.6200000e+00 6.0100000e+00 0.0000000e+00 
6.6200000e+00 6.0300000e+00 0.0000000e+00 
6.6466667e+00 5.9700000e+00 0.0000000e+00 
6.6466667e+00 5.9900000e+00 0.0000000e+00 
6.6466667e+00 6.0100000e+00 0.0000000e+00 
6.6466667e+00 6.0300000e+00 0.0000000e+00 
6.6733333e+00 5.9700000e+00 0.0000000e+00 
6.6733333e+00 5.9900000e+00 0.0000000e+00 
6.6733333e+00 6.0100000e+00 0.0000000e+00 
6.6733333e+00 6.0300000e+00 0.0000000e+00 
6.7000000e+00 5.9700000e+00 0.0000000e+00 
6.7000000e+00 5.9900000e+00 0.0000000e+00 
6.7000000e+00 6.0100000e+00 0.0000000e+00 
6.7000000e+00 6.0300000e+00 0.0000000e+00 
6.7266667e+00 5.9700000e+00 0.0000000e+00 
6.7266667e+00 5.9900000e+00 0.0000000e+00 
6.7266667e+00 6.0100000e+00 0.0000000e+00 
6.7266667e+00 6.0300000e+00 0.0000000e+00 
6.7533333e+00 5.9700000e+00 0.0000000e+00 
6.7533333e+00 5.9900000e+00 0.0000000e+00 
6.7533333e+00 6.0100000e+00 0.0000000e+00 
6.7533333e+00 6.0300000e+00 0.0000000e+00 
6.7800000e+00 5.9700000e+00 0.0000000e+00 
6.7800000e+00 5.9900000e+00 0.0000000e+00 
6.7800000e+00 6.0100000e+00 0.0000000e+00 
6.7800000e+00 6.0300000e+00 0.0000000e+00 
6.8066667e+00 5.9700000e+00 0.0000000e+00 
6.8066667e+00 5.9900000e+00 0.0000000e+00 
6.8066667e+00 6.0100000e+00 0.0000000e+00 
6.8066667e+00 6.0300000e+00 0.0000000e+00 
6.8333333e+00 5.9700000e+00 0.0000000e+00 
6.8333333e+00 5.9900000e+00 0.0000000e+00 
6.8333333e+00 6.0100000e+00 0.0000000e+00 
6.8333333e+00 6.0300000e+00 0.0000000e+00 
6.8600000e+00 5.9700000e+00 0.0000000e+00 
6.8600000e+00 5.9900000e+00 0.0000000e+00 
6.8600000e+00 6.0100000e+00 0.0000000e+00 
6.8600000e+00 6.0300000e+00 0.0000000e+00 
6.8866667e+00 5.9700000e+00 0.0000000e+00 
6.8866667e+00 5.9900000e+00 0.0000000e+00 
6.8866667e+00 6.0100000e+00 0.0000000e+00 
6.8866667e+00 6.0300000e+00 0.0000000e+00 
6.9133333e+00 5.9700000e+00 0.0000000e+00 
6.9133333e+00 5.9900000e+00 0.0000000e+00 
6.9133333e+00 6.0100000e+00 0.0000000e+00 
6.9133333e+00 6.0300000e+00 0.0000000e+00 
6.9400000e+00 5.9700000e+00 0.0000000e+00 
6.9400000e+00 5.9900000e+00 0.0000000e+00 
6.9400000e+00 6.0100000e+00 0.0000000e+00 
6.9400000e+00 6.0300000e+00 0.0000000e+00 
6.9666667e+00 5.9700000e+00 0.0000000e+00 
6.9666667e+00 5.9900000e+00 0.0000000e+00 
6.9666667e+00 6.0100000e+00 0.0000000e+00 
6.9666667e+00 6.0300000e+00 0.0000000e+00 
6.9933333e+00 5.9700000e+00 0.0000000e+00 
6.9933333e+00 5.9900000e+00 0.0000000e+00 
6.9933333e+00 6.0100000e+00 0.0000000e+00 
6.9933333e+00 6.0300000e+00 0.0000000e+00 
7.0200000e+00 5.9700000e+00 0.0000000e+00 
7.0200000e+00 5.9900000e+00 0.0000000e+00 
[...]
POINT_DATA 604
FIELD FieldData 2
DISPLACEMENT 3 604  float
0.0000000e+00 0.0000000e+00 0.0000000e+00 
0.0000000e+00 0.0000000e+00 0.0000000e+00 
4.8253410e-05 2.9561447e-05 0.0000000e+00 
1.5455820e-05 1.9347422e-05 0.0000000e+00 
0.0000000e+00 0.0000000e+00 0.0000000e+00 
-1.5053204e-05 1.9307800e-05 0.0000000e+00 
9.6882160e-05 9.3406349e-05 0.0000000e+00 
3.2353575e-05 8.5528711e-05 0.0000000e+00 
0.0000000e+00 0.0000000e+00 0.0000000e+00 
-4.8101854e-05 2.9254829e-05 0.0000000e+00 
-3.2026113e-05 8.5732806e-05 0.0000000e+00 
1.4428030e-04 2.0271853e-04 0.0000000e+00 
-9.6641747e-05 9.4353380e-05 0.0000000e+00 
4.7936652e-05 1.9410965e-04 0.0000000e+00 
-4.7909065e-05 1.9392361e-04 0.0000000e+00 
-1.4432277e-04 2.0177670e-04 0.0000000e+00 
1.9032270e-04 3.5222874e-04 0.0000000e+00 
6.3069209e-05 3.4427504e-04 0.0000000e+00 
-6.3728041e-05 3.4414900e-04 0.0000000e+00 
-1.9106275e-04 3.5225038e-04 0.0000000e+00 
2.3493357e-04 5.4398584e-04 0.0000000e+00 
7.7568688e-05 5.3540727e-04 0.0000000e+00 
-7.9406293e-05 5.3479820e-04 0.0000000e+00 
-2.3695286e-04 5.4186033e-04 0.0000000e+00 
2.7811952e-04 7.7404264e-04 0.0000000e+00 
9.1401416e-05 7.6597079e-04 0.0000000e+00 
-9.5015939e-05 7.6548440e-04 0.0000000e+00 
-2.8210642e-04 7.7269179e-04 0.0000000e+00 
3.1993766e-04 1.0436380e-03 0.0000000e+00 
1.0427370e-04 1.0354714e-03 0.0000000e+00 
-1.1086498e-04 1.0346968e-03 0.0000000e+00 
-3.2642026e-04 1.0414351e-03 0.0000000e+00 
3.6013472e-04 1.3518134e-03 0.0000000e+00 
1.1660679e-04 1.3429405e-03 0.0000000e+00 
-1.2653256e-04 1.3414789e-03 0.0000000e+00 
-3.7018376e-04 1.3471158e-03 0.0000000e+00 
3.9894040e-04 1.6953830e-03 0.0000000e+00 
1.2810987e-04 1.6869631e-03 0.0000000e+00 
-1.4233150e-04 1.6854285e-03 0.0000000e+00 
-4.1332900e-04 1.6911795e-03 0.0000000e+00 
4.3615353e-04 2.0764087e-03 0.0000000e+00 
1.3876699e-04 2.0671647e-03 0.0000000e+00 
-1.5828903e-04 2.0650197e-03 0.0000000e+00 
-4.5588351e-04 2.0695578e-03 0.0000000e+00 
4.7190013e-04 2.4909770e-03 0.0000000e+00 
1.4854332e-04 2.4821532e-03 0.0000000e+00 
-1.7443695e-04 2.4798503e-03 0.0000000e+00 
-4.9797078e-04 2.4844784e-03 0.0000000e+00 
5.0597359e-04 2.9411941e-03 0.0000000e+00 
1.5743105e-04 2.9314814e-03 0.0000000e+00 
-1.9080465e-04 2.9285177e-03 0.0000000e+00 
-5.3957478e-04 2.9318781e-03 0.0000000e+00 
5.3856280e-04 3.4231159e-03 0.0000000e+00 
1.6538535e-04 3.4137887e-03 0.0000000e+00 
-2.0743000e-04 3.4106292e-03 0.0000000e+00 
-5.8079948e-04 3.4140508e-03 0.0000000e+00 
5.6943456e-04 3.9389231e-03 0.0000000e+00 
1.7240641e-04 3.9286571e-03 0.0000000e+00 
-2.2433616e-04 3.9247978e-03 0.0000000e+00 
-6.2160924e-04 3.9269120e-03 0.0000000e+00 
5.9881107e-04 4.4846447e-03 0.0000000e+00 
1.7845352e-04 4.4747385e-03 0.0000000e+00 
-2.4155372e-04 4.4706548e-03 0.0000000e+00 
-6.6211496e-04 4.4728092e-03 0.0000000e+00 
6.2643652e-04 5.0625272e-03 0.0000000e+00 
1.8353447e-04 5.0516420e-03 0.0000000e+00 
-2.5909945e-04 5.0468275e-03 0.0000000e+00 
-7.0225917e-04 5.0476437e-03 0.0000000e+00 
6.5256319e-04 5.6685707e-03 0.0000000e+00 
1.8761224e-04 5.6580279e-03 0.0000000e+00 
-2.7699728e-04 5.6529692e-03 0.0000000e+00 
-7.4216015e-04 5.6538117e-03 0.0000000e+00 
6.7691588e-04 6.3050826e-03 0.0000000e+00 
1.9070047e-04 6.2935305e-03 0.0000000e+00 
-2.9525894e-04 6.2877182e-03 0.0000000e+00 
-7.8173730e-04 6.2872008e-03 0.0000000e+00 
6.9977479e-04 6.9680432e-03 0.0000000e+00 
1.9276695e-04 6.9568168e-03 0.0000000e+00 
-3.1390055e-04 6.9507459e-03 0.0000000e+00 
-8.2111547e-04 6.9502400e-03 0.0000000e+00 
7.2081875e-04 7.6598020e-03 0.0000000e+00 
1.9384545e-04 7.6475618e-03 0.0000000e+00 
-3.3291312e-04 7.6406808e-03 0.0000000e+00 
-8.6022039e-04 7.6388169e-03 0.0000000e+00 
7.4032426e-04 8.3762883e-03 0.0000000e+00 
1.9392156e-04 8.3643154e-03 0.0000000e+00 
-3.5230937e-04 8.3573268e-03 0.0000000e+00 
-8.9920753e-04 8.3554147e-03 0.0000000e+00 
7.5824336e-04 9.1191430e-03 0.0000000e+00 
1.9272324e-04 9.1068151e-03 0.0000000e+00 
-3.7235887e-04 9.0993003e-03 0.0000000e+00 
-9.3783722e-04 9.0967153e-03 0.0000000e+00 
7.7433830e-04 9.8875405e-03 0.0000000e+00 
1.9075897e-04 9.8742191e-03 0.0000000e+00 
-3.9255417e-04 9.8657840e-03 0.0000000e+00 
-9.7634577e-04 9.8618772e-03 0.0000000e+00 
7.8901257e-04 1.0678177e-02 0.0000000e+00 
1.8774992e-04 1.0665183e-02 0.0000000e+00 
-4.1318319e-04 1.0656529e-02 0.0000000e+00 
-1.0146709e-03 1.0652629e-02 0.0000000e+00 
8.0190932e-04 1.1493554e-02 0.0000000e+00 
1.8372492e-04 1.1479511e-02 0.0000000e+00 
-4.3422498e-04 1.1470084e-02 0.0000000e+00 
-1.0526783e-03 1.1464810e-02 0.0000000e+00 
8.1335509e-04 1.2329534e-02 0.0000000e+00 
1.7867623e-04 1.2315848e-02 0.0000000e+00 
-4.5566093e-04 1.2306172e-02 0.0000000e+00 
-1.0905489e-03 1.2300930e-02 0.0000000e+00 
8.2299987e-04 1.3188626e-02 0.0000000e+00 
1.7263889e-04 1.3173891e-02 0.0000000e+00 
-4.7748144e-04 1.3163452e-02 0.0000000e+00 
-1.1281011e-03 1.3156839e-02 0.0000000e+00 
8.3121471e-04 1.4066651e-02 0.0000000e+00 
1.6559331e-04 1.4052295e-02 0.0000000e+00 
-4.9967555e-04 1.4041623e-02 0.0000000e+00 
-1.1654964e-03 1.4035056e-02 0.0000000e+00 
8.3763425e-04 1.4966145e-02 0.0000000e+00 
1.5757729e-04 1.4950755e-02 0.0000000e+00 
-5.2223042e-04 1.4939336e-02 0.0000000e+00 
-1.2025355e-03 1.4931414e-02 0.0000000e+00 
8.4264500e-04 1.5882893e-02 0.0000000e+00 
1.4857472e-04 1.5867911e-02 0.0000000e+00 
-5.4512888e-04 1.5856280e-02 0.0000000e+00 
-1.2393862e-03 1.5848423e-02 0.0000000e+00 
8.4586967e-04 1.6819445e-02 0.0000000e+00 
1.3862700e-04 1.6803450e-02 0.0000000e+00 
-5.6835398e-04 1.6791097e-02 0.0000000e+00 
-1.2758312e-03 1.6781906e-02 0.0000000e+00 
8.4770918e-04 1.7771551e-02 0.0000000e+00 
1.2772106e-04 1.7755996e-02 0.0000000e+00 
-5.9188301e-04 1.7743458e-02 0.0000000e+00 
-1.3120429e-03 1.7734356e-02 0.0000000e+00 
8.4777707e-04 1.8741760e-02 0.0000000e+00 
1.1590102e-04 1.8725226e-02 0.0000000e+00 
-6.1569570e-04 1.8711994e-02 0.0000000e+00 
-1.3477864e-03 1.8701587e-02 0.0000000e+00 
8.4648808e-04 1.9725803e-02 0.0000000e+00 
1.0315796e-04 1.9709740e-02 0.0000000e+00 
-6.3976269e-04 1.9696355e-02 0.0000000e+00 
-1.3832366e-03 1.9686055e-02 0.0000000e+00 
8.4341894e-04 2.0726208e-02 0.0000000e+00 
8.9553900e-05 2.0709221e-02 0.0000000e+00 
-6.6404317e-04 2.0695133e-02 0.0000000e+00 
-1.4181719e-03 2.0683578e-02 0.0000000e+00 
8.3896414e-04 2.1738649e-02 0.0000000e+00 
7.5103219e-05 2.1722119e-02 0.0000000e+00 
-6.8851026e-04 2.1708077e-02 0.0000000e+00 
-1.4527936e-03 2.1696605e-02 0.0000000e+00 
8.3302302e-04 2.2764867e-02 0.0000000e+00 
5.9539242e-05 2.2748158e-02 0.0000000e+00 
-7.1339472e-04 2.2733752e-02 0.0000000e+00 
-1.4867409e-03 2.2721749e-02 0.0000000e+00 
8.2535209e-04 2.3803913e-02 0.0000000e+00 
4.3414442e-05 2.3786395e-02 0.0000000e+00 
-7.3814660e-04 2.3771247e-02 0.0000000e+00 
-1.5201867e-03 2.3758090e-02 0.0000000e+00 
8.1641413e-04 2.4852254e-02 0.0000000e+00 
2.6464221e-05 2.4835325e-02 0.0000000e+00 
-7.6301358e-04 2.4820170e-02 0.0000000e+00 
-1.5530747e-03 2.4807187e-02 0.0000000e+00 
8.0579087e-04 2.5912378e-02 0.0000000e+00 
8.7366672e-06 2.5894641e-02 0.0000000e+00 
-7.8794437e-04 2.5878943e-02 0.0000000e+00 
-1.5851368e-03 2.5864802e-02 0.0000000e+00 
7.9388648e-04 2.6979878e-02 0.0000000e+00 
-9.7490421e-06 2.6962802e-02 0.0000000e+00 
-8.1287643e-04 2.6947108e-02 0.0000000e+00 
-1.6165874e-03 2.6933200e-02 0.0000000e+00 
7.8030513e-04 2.8057178e-02 0.0000000e+00 
-2.8937122e-05 2.8039354e-02 0.0000000e+00 
-8.3777218e-04 2.8023172e-02 0.0000000e+00 
-1.6471198e-03 2.8008152e-02 0.0000000e+00 
7.6548051e-04 2.9139841e-02 0.0000000e+00 
-4.8819331e-05 2.9122739e-02 0.0000000e+00 
-8.6257836e-04 2.9106617e-02 0.0000000e+00 
-1.6769251e-03 2.9091875e-02 0.0000000e+00 
7.4901959e-04 3.0230241e-02 0.0000000e+00 
-6.9338799e-05 3.0212463e-02 0.0000000e+00 
-8.8725597e-04 3.0195916e-02 0.0000000e+00 
-1.7056873e-03 3.0180121e-02 0.0000000e+00 
7.3135585e-04 3.1323930e-02 0.0000000e+00 
-9.0482724e-05 3.1306938e-02 0.0000000e+00 
-9.1174717e-04 3.1290511e-02 0.0000000e+00 
-1.7336021e-03 3.1275044e-02 0.0000000e+00 
7.1210272e-04 3.2423219e-02 0.0000000e+00 
-1.1219225e-04 3.2405628e-02 0.0000000e+00 
-9.3601116e-04 3.2388843e-02 0.0000000e+00 
-1.7603447e-03 3.2372386e-02 0.0000000e+00 
6.9169270e-04 3.3523653e-02 0.0000000e+00 
-1.3445079e-04 3.3506913e-02 0.0000000e+00 
-9.5998685e-04 3.3490312e-02 0.0000000e+00 
-1.7861145e-03 3.3474236e-02 0.0000000e+00 
6.6974833e-04 3.4627472e-02 0.0000000e+00 
-1.5719834e-04 3.4610217e-02 0.0000000e+00 
-9.8363295e-04 3.4593328e-02 0.0000000e+00 
-1.8105792e-03 3.4576331e-02 0.0000000e+00 
6.4670104e-04 3.5730237e-02 0.0000000e+00 
-1.8041431e-04 3.5713893e-02 0.0000000e+00 
-1.0068848e-03 3.5697253e-02 0.0000000e+00 
-1.8339412e-03 3.5680686e-02 0.0000000e+00 
6.2215553e-04 3.6834101e-02 0.0000000e+00 
-2.0402324e-04 3.6817345e-02 0.0000000e+00 
-1.0296850e-03 3.6800449e-02 0.0000000e+00 
-1.8558907e-03 3.6783046e-02 0.0000000e+00 
5.9651024e-04 3.7934610e-02 0.0000000e+00 
-2.2798229e-04 3.7918782e-02 0.0000000e+00 
-1.0519762e-03 3.7902352e-02 0.0000000e+00 
-1.8766554e-03 3.7885388e-02 0.0000000e+00 
5.6969097e-04 3.9033135e-02 0.0000000e+00 
-2.5252546e-04 3.9017633e-02 0.0000000e+00 
-1.0739543e-03 3.9001303e-02 0.0000000e+00 
-1.8958250e-03 3.8984213e-02 0.0000000e+00 
5.4149486e-04 4.0128426e-02 0.0000000e+00 
-2.7711186e-04 4.0112687e-02 0.0000000e+00 
-1.0950816e-03 4.0096111e-02 0.0000000e+00 
-1.9135381e-03 4.0078334e-02 0.0000000e+00 
5.1235428e-04 4.1216863e-02 0.0000000e+00 
-3.0196504e-04 4.1202197e-02 0.0000000e+00 
-1.1155664e-03 4.1186080e-02 0.0000000e+00 
-1.9297647e-03 4.1168863e-02 0.0000000e+00 
4.8192613e-04 4.2300409e-02 0.0000000e+00 
-3.2703022e-04 4.2285543e-02 0.0000000e+00 
-1.1353526e-03 4.2269400e-02 0.0000000e+00 
-1.9441820e-03 4.2251522e-02 0.0000000e+00 
4.5058002e-04 4.3374686e-02 0.0000000e+00 
-3.5226312e-04 4.3360970e-02 0.0000000e+00 
-1.1543601e-03 4.3345316e-02 0.0000000e+00 
-1.9570411e-03 4.3328078e-02 0.0000000e+00 
4.1800839e-04 4.4441553e-02 0.0000000e+00 
-3.7760214e-04 4.4427720e-02 0.0000000e+00 
-1.1725525e-03 4.4412113e-02 0.0000000e+00 
-1.9679967e-03 4.4394281e-02 0.0000000e+00 
3.8459617e-04 4.5496677e-02 0.0000000e+00 
-4.0301680e-04 4.5484052e-02 0.0000000e+00 
-1.1898653e-03 4.5468999e-02 0.0000000e+00 
-1.9772854e-03 4.5451872e-02 0.0000000e+00 
3.5005183e-04 4.6541848e-02 0.0000000e+00 
-4.2844762e-04 4.6529188e-02 0.0000000e+00 
-1.2062681e-03 4.6514254e-02 0.0000000e+00 
-1.9845667e-03 4.6496604e-02 0.0000000e+00 
3.1474771e-04 4.7572797e-02 0.0000000e+00 
-4.5386411e-04 4.7561395e-02 0.0000000e+00 
-1.2216996e-03 4.7547078e-02 0.0000000e+00 
-1.9900906e-03 4.7530192e-02 0.0000000e+00 
2.7840945e-04 4.8591244e-02 0.0000000e+00 
-4.7920865e-04 4.8579883e-02 0.0000000e+00 
-1.2361358e-03 4.8565750e-02 0.0000000e+00 
-1.9935214e-03 4.8548410e-02 0.0000000e+00 
2.4139654e-04 4.9592998e-02 0.0000000e+00 
-5.0445237e-04 4.9582938e-02 0.0000000e+00 
-1.2495200e-03 4.9569477e-02 0.0000000e+00 
-1.9951236e-03 4.9552959e-02 0.0000000e+00 
2.0345184e-04 5.0579718e-02 0.0000000e+00 
-5.2954084e-04 5.0569767e-02 0.0000000e+00 
-1.2618369e-03 5.0556549e-02 0.0000000e+00 
-1.9945667e-03 5.0539641e-02 0.0000000e+00 
1.6492239e-04 5.1547311e-02 0.0000000e+00 
-5.5444744e-04 5.1538688e-02 0.0000000e+00 
-1.2730341e-03 5.1526189e-02 0.0000000e+00 
-1.9921301e-03 5.1510148e-02 0.0000000e+00 
1.2554260e-04 5.2497376e-02 0.0000000e+00 
-5.7910873e-04 5.2488932e-02 0.0000000e+00 
-1.2830929e-03 5.2476693e-02 0.0000000e+00 
-1.9875134e-03 5.2460332e-02 0.0000000e+00 
8.5620494e-05 5.3425895e-02 0.0000000e+00 
-6.0348828e-04 5.3418759e-02 0.0000000e+00 
-1.2919711e-03 5.3407406e-02 0.0000000e+00 
-1.9810316e-03 5.3391910e-02 0.0000000e+00 
4.5158784e-05 5.4333824e-02 0.0000000e+00 
-6.2778309e-04 5.4327457e-02 0.0000000e+00 
-1.2998939e-03 5.4316658e-02 0.0000000e+00 
-1.9723250e-03 5.4301490e-02 0.0000000e+00 
4.0309110e-06 5.5219936e-02 0.0000000e+00 
-6.5153425e-04 5.5213843e-02 0.0000000e+00 
-1.3064052e-03 5.5203265e-02 0.0000000e+00 
-1.9616078e-03 5.5187896e-02 0.0000000e+00 
-3.7416477e-05 5.6081120e-02 0.0000000e+00 
-6.7493770e-04 5.6076368e-02 0.0000000e+00 
-1.3117351e-03 5.6066618e-02 0.0000000e+00 
-1.9489763e-03 5.6052197e-02 0.0000000e+00 
-7.9398407e-05 5.6918917e-02 0.0000000e+00 
-6.9796433e-04 5.6914423e-02 0.0000000e+00 
-1.3158910e-03 5.6905052e-02 0.0000000e+00 
-1.9341422e-03 5.6890419e-02 0.0000000e+00 
-1.2165495e-04 5.7729676e-02 0.0000000e+00 
-7.2059162e-04 5.7726521e-02 0.0000000e+00 
-1.3188317e-03 5.7717954e-02 0.0000000e+00 
-1.9174809e-03 5.7704305e-02 0.0000000e+00 
-1.6437246e-04 5.8514894e-02 0.0000000e+00 
-7.4278702e-04 5.8512005e-02 0.0000000e+00 
-1.3205939e-03 5.8503827e-02 0.0000000e+00 
-1.8986888e-03 5.8489987e-02 0.0000000e+00 
-2.0728369e-04 5.9271059e-02 0.0000000e+00 
-7.6454790e-04 5.9269481e-02 0.0000000e+00 
-1.3211554e-03 5.9262104e-02 0.0000000e+00 
-1.8781388e-03 5.9249258e-02 0.0000000e+00 
-2.5056403e-04 5.9999664e-02 0.0000000e+00 
-7.8584858e-04 5.9998349e-02 0.0000000e+00 
-1.3205672e-03 5.9991363e-02 0.0000000e+00 
-1.8555364e-03 5.9978345e-02 0.0000000e+00 
-2.9396360e-04 6.0697356e-02 0.0000000e+00 
-8.0669305e-04 6.0697309e-02 0.0000000e+00 
-1.3188136e-03 6.0691109e-02 0.0000000e+00 
-1.8312755e-03 6.0679083e-02 0.0000000e+00 
-3.3764734e-04 6.1365627e-02 0.0000000e+00 
-8.2706145e-04 6.1365827e-02 0.0000000e+00 
-1.3159593e-03 6.1360006e-02 0.0000000e+00 
-1.8050689e-03 6.1347817e-02 0.0000000e+00 
-3.8138147e-04 6.2001294e-02 0.0000000e+00 
-8.4696518e-04 6.2002704e-02 0.0000000e+00 
-1.3119952e-03 6.1997641e-02 0.0000000e+00 
-1.7773308e-03 6.1986429e-02 0.0000000e+00 
-4.2532136e-04 6.2605854e-02 0.0000000e+00 
-8.6639057e-04 6.2607481e-02 0.0000000e+00 
-1.3069996e-03 6.2602774e-02 0.0000000e+00 
-1.7477794e-03 6.2591399e-02 0.0000000e+00 
-4.6924749e-04 6.3176308e-02 0.0000000e+00 
-8.8535582e-04 6.3179070e-02 0.0000000e+00 
-1.3009685e-03 6.3175081e-02 0.0000000e+00 
-1.7168472e-03 6.3164653e-02 0.0000000e+00 
-5.1332656e-04 6.3714163e-02 0.0000000e+00 
-9.0384241e-04 6.3717110e-02 0.0000000e+00 
-1.2939836e-03 6.3713413e-02 0.0000000e+00 
-1.6842766e-03 6.3702824e-02 0.0000000e+00 
-5.5737326e-04 6.4216584e-02 0.0000000e+00 
-9.2186732e-04 6.4220550e-02 0.0000000e+00 
-1.2860458e-03 6.4217621e-02 0.0000000e+00 
-1.6505319e-03 6.4207902e-02 0.0000000e+00 
-6.0135659e-04 6.4684620e-02 0.0000000e+00 
-9.3961363e-04 6.4689134e-02 0.0000000e+00 
-1.2774451e-03 6.4686667e-02 0.0000000e+00 
-1.6153307e-03 6.4677290e-02 0.0000000e+00 
-6.4536238e-04 6.5117680e-02 0.0000000e+00 
-9.5675601e-04 6.5122311e-02 0.0000000e+00 
-1.2678594e-03 6.5119980e-02 0.0000000e+00 
-1.5789865e-03 6.5110469e-02 0.0000000e+00 
-6.8914346e-04 6.5513844e-02 0.0000000e+00 
-9.7348800e-04 6.5519357e-02 0.0000000e+00 
-1.2575460e-03 6.5517625e-02 0.0000000e+00 
-1.5417594e-03 6.5508944e-02 0.0000000e+00 
-7.3284826e-04 6.5874733e-02 0.0000000e+00 
-9.8982196e-04 6.5880263e-02 0.0000000e+00 
-1.2466088e-03 6.5878723e-02 0.0000000e+00 
-1.5034013e-03 6.5869832e-02 0.0000000e+00 
-7.7631931e-04 6.6198096e-02 0.0000000e+00 
-1.0057893e-03 6.6204410e-02 0.0000000e+00 
-1.2350473e-03 6.6203367e-02 0.0000000e+00 
-1.4644207e-03 6.6195261e-02 0.0000000e+00 
-8.1968936e-04 6.6485565e-02 0.0000000e+00 
-1.0213934e-03 6.6491814e-02 0.0000000e+00 
-1.2229892e-03 6.6490895e-02 0.0000000e+00 
-1.4245488e-03 6.6482539e-02 0.0000000e+00 
-8.6278782e-04 6.6735079e-02 0.0000000e+00 
-1.0366820e-03 6.6741999e-02 0.0000000e+00 
-1.2104449e-03 6.6741498e-02 0.0000000e+00 
-1.3842856e-03 6.6733865e-02 0.0000000e+00 
-9.0574445e-04 6.6948319e-02 0.0000000e+00 
-1.0516602e-03 6.6955089e-02 0.0000000e+00 
-1.1975500e-03 6.6954644e-02 0.0000000e+00 
-1.3433624e-03 6.6946722e-02 0.0000000e+00 
-9.4839474e-04 6.7123419e-02 0.0000000e+00 
-1.0663789e-03 6.7130745e-02 0.0000000e+00 
-1.1843140e-03 6.7130634e-02 0.0000000e+00 
-1.3022893e-03 6.7123368e-02 0.0000000e+00 
-9.9086529e-04 6.7262111e-02 0.0000000e+00 
-1.0808429e-03 6.7269199e-02 0.0000000e+00 
-1.1708779e-03 6.7269072e-02 0.0000000e+00 
-1.2607942e-03 6.7261477e-02 0.0000000e+00 
-1.0329952e-03 6.7362721e-02 0.0000000e+00 
-1.0951054e-03 6.7370247e-02 0.0000000e+00 
-1.1572491e-03 6.7370371e-02 0.0000000e+00 
-1.2193951e-03 6.7363364e-02 0.0000000e+00 
-1.0749078e-03 6.7427036e-02 0.0000000e+00 
-1.1091701e-03 6.7434237e-02 0.0000000e+00 
-1.1435727e-03 6.7434271e-02 0.0000000e+00 
-1.1778137e-03 6.7426896e-02 0.0000000e+00 
-1.1164432e-03 6.7453579e-02 0.0000000e+00 
-1.1230912e-03 6.7461098e-02 0.0000000e+00 
-1.1298515e-03 6.7461299e-02 0.0000000e+00 
-1.1365732e-03 6.7454439e-02 0.0000000e+00 
-1.1577368e-03 6.7444188e-02 0.0000000e+00 
-1.1368623e-03 6.7451301e-02 0.0000000e+00 
-1.1162263e-03 6.7451321e-02 0.0000000e+00 
-1.0954016e-03 6.7444066e-02 0.0000000e+00 
-1.1986450e-03 6.7397559e-02 0.0000000e+00 
-1.1505311e-03 6.7404854e-02 0.0000000e+00 
-1.1026946e-03 6.7405033e-02 0.0000000e+00 
-1.0548326e-03 6.7398193e-02 0.0000000e+00 
-1.2391583e-03 6.7315237e-02 0.0000000e+00 
-1.1642387e-03 6.7322353e-02 0.0000000e+00 
-1.0895345e-03 6.7322450e-02 0.0000000e+00 
-1.0145952e-03 6.7315579e-02 0.0000000e+00 
-1.2793353e-03 6.7197580e-02 0.0000000e+00 
-1.1777581e-03 6.7204180e-02 0.0000000e+00 
-1.0765234e-03 6.7203931e-02 0.0000000e+00 
-9.7498435e-04 6.7196675e-02 0.0000000e+00 
-1.3189636e-03 6.7044036e-02 0.0000000e+00 
-1.1912477e-03 6.7050664e-02 0.0000000e+00 
-1.0638601e-03 6.7050410e-02 0.0000000e+00 
-9.3631535e-04 6.7043496e-02 0.0000000e+00 
-1.3581792e-03 6.6856626e-02 0.0000000e+00 
-1.2047081e-03 6.6862646e-02 0.0000000e+00 
-1.0516709e-03 6.6862080e-02 0.0000000e+00 
-8.9831013e-04 6.6854718e-02 0.0000000e+00 
-1.3968284e-03 6.6634576e-02 0.0000000e+00 
-1.2181835e-03 6.6640541e-02 0.0000000e+00 
-1.0399296e-03 6.6639883e-02 0.0000000e+00 
-8.6148058e-04 6.6632816e-02 0.0000000e+00 
-1.4350416e-03 6.6379934e-02 0.0000000e+00 
-1.2316571e-03 6.6385225e-02 0.0000000e+00 
-1.0287701e-03 6.6384205e-02 0.0000000e+00 
-8.2552178e-04 6.6376668e-02 0.0000000e+00 
-1.4726430e-03 6.6092076e-02 0.0000000e+00 
-1.2451790e-03 6.6097231e-02 0.0000000e+00 
-1.0181656e-03 6.6096063e-02 0.0000000e+00 
-7.9092133e-04 6.6088773e-02 0.0000000e+00 
-1.5097645e-03 6.5773103e-02 0.0000000e+00 
-1.2587266e-03 6.5777530e-02 0.0000000e+00 
-1.0082449e-03 6.5775960e-02 0.0000000e+00 
-7.5736587e-04 6.5768192e-02 0.0000000e+00 
-1.5462239e-03 6.5422536e-02 0.0000000e+00 
-1.2723461e-03 6.5426759e-02 0.0000000e+00 
-9.9897180e-04 6.5424994e-02 0.0000000e+00 
-7.2533142e-04 6.5417432e-02 0.0000000e+00 
-1.5821555e-03 6.5042519e-02 0.0000000e+00 
-1.2860076e-03 6.5045971e-02 0.0000000e+00 
-9.9046767e-04 6.5043775e-02 0.0000000e+00 
-6.9449555e-04 6.5035736e-02 0.0000000e+00 
-1.6173696e-03 6.4632708e-02 0.0000000e+00 
-1.2997537e-03 6.4635900e-02 0.0000000e+00 
-9.8268698e-04 6.4633475e-02 0.0000000e+00 
-6.6531988e-04 6.4625609e-02 0.0000000e+00 
-1.6520032e-03 6.4195287e-02 0.0000000e+00 
-1.3135475e-03 6.4197679e-02 0.0000000e+00 
-9.7574314e-04 6.4194804e-02 0.0000000e+00 
-6.3747256e-04 6.4186472e-02 0.0000000e+00 
-1.6858591e-03 6.3730037e-02 0.0000000e+00 
-1.3274276e-03 6.3732124e-02 0.0000000e+00 
-9.6958024e-04 6.3728994e-02 0.0000000e+00 
-6.1139760e-04 6.3720807e-02 0.0000000e+00 
-1.7190881e-03 6.3239173e-02 0.0000000e+00 
-1.3413455e-03 6.3240447e-02 0.0000000e+00 
-9.6429811e-04 6.3236847e-02 0.0000000e+00 
-5.8676552e-04 6.3228224e-02 0.0000000e+00 
-1.7515009e-03 6.2722576e-02 0.0000000e+00 
-1.3553280e-03 6.2723496e-02 0.0000000e+00 
-9.5983608e-04 6.2719676e-02 0.0000000e+00 
-5.6399950e-04 6.2711162e-02 0.0000000e+00 
-1.7831393e-03 6.2182233e-02 0.0000000e+00 
-1.3694443e-03 6.2182577e-02 0.0000000e+00 
-9.5634875e-04 6.2178400e-02 0.0000000e+00 
-5.4278925e-04 6.2169709e-02 0.0000000e+00 
-1.8140621e-03 6.1619198e-02 0.0000000e+00 
-1.3835089e-03 6.1618742e-02 0.0000000e+00 
-9.5365783e-04 6.1614059e-02 0.0000000e+00 