# vtk DataFile Version 4.0
vtk output
ASCII
DATASET UNSTRUCTURED_GRID
POINTS 604 float
5.5000000e+00 5.9700000e+00 0.0000000e+00 
5.5000000e+00 5.9900000e+00 0.0000000e+00 
5.5266667e+00 5.9700000e+00 0.0000000e+00 
5.5266667e+00 5.9900000e+00 0.0000000e+00 
5.5000000e+00 6.0100000e+00 0.0000000e+00 
5.5266667e+00 6.0100000e+00 0.0000000e+00 
5.5533333e+00 5.9700000e+00 0.0000000e+00 
5.5533333e+00 5.9900000e+00 0.0000000e+00 
5.5000000e+00 6.0300000e+00 0.0000000e+00 
5.5266667e+00 6.0300000e+00 0.0000000e+00 
5.5533333e+00 6.0100000e+00 0.0000000e+00 
5.5800000e+00 5.9700000e+00 0.0000000e+00 
5.5533333e+00 6.0300000e+00 0.0000000e+00 
5.5800000e+00 5.9900000e+00 0.0000000e+00 
5.5800000e+00 6.0100000e+00 0.0000000e+00 
5.5800000e+00 6.0300000e+00 0.0000000e+00 
5.6066667e+00 5.9700000e+00 0.0000000e+00 
5.6066667e+00 5.9900000e+00 0.0000000e+00 
5.6066667e+00 6.0100000e+00 0.0000000e+00 
5.6066667e+00 6.0300000e+00 0.0000000e+00 
5.6333333e+00 5.9700000e+00 0.0000000e+00 
5.6333333e+00 5.9900000e+00 0.0000000e+00 
5.6333333e+00 6.0100000e+00 0.0000000e+00 
5.6333333e+00 6.0300000e+00 0.0000000e+00 
5.6600000e+00 5.9700000e+00 0.0000000e+00 
5.6600000e+00 5.9900000e+00 0.0000000e+00 
5.6600000e+00 6.0100000e+00 0.0000000e+00 
5.6600000e+00 6.0300000e+00 0.0000000e+00 
5.6866667e+00 5.9700000e+00 0.0000000e+00 
5.6866667e+00 5.9900000e+00 0.0000000e+00 
5.6866667e+00 6.0100000e+00 0.0000000e+00 
5.6866667e+00 6.0300000e+00 0.0000000e+00 
5.7133333e+00 5.9700000e+00 0.0000000e+00 
5.7133333e+00 5.9900000e+00 0.0000000e+00 
5.7133333e+00 6.0100000e+00 0.0000000e+00 
5.7133333e+00 6.0300000e+00 0.0000000e+00 
5.7400000e+00 5.9700000e+00 0.0000000e+00 
5.7400000e+00 5.9900000e+00 0.0000000e+00 
5.7400000e+00 6.0100000e+00 0.0000000e+00 
5.7400000e+00 6.0300000e+00 0.0000000e+00 
5.7666667e+00 5.9700000e+00 0.0000000e+00 
5.7666667e+00 5.9900000e+00 0.0000000e+00 
5.7666667e+00 6.0100000e+00 0.0000000e+00 
5.7666667e+00 6.0300000e+00 0.0000000e+00 
5.7933333e+00 5.9700000e+00 0.0000000e+00 
5.7933333e+00 5.9900000e+00 0.0000000e+00 
5.7933333e+00 6.0100000e+00 0.0000000e+00 
5.7933333e+00 6.0300000e+00 0.0000000e+00 
5.8200000e+00 5.9700000e+00 0.0000000e+00 
5.8200000e+00 5.9900000e+00 0.0000000e+00 
5.8200000e+00 6.0100000e+00 0.0000000e+00 
5.8200000e+00 6.0300000e+00 0.0000000e+00 
5.8466667e+00 5.9700000e+00 0.0000000e+00 
5.8466667e+00 5.9900000e+00 0.0000000e+00 
5.8466667e+00 6.0100000e+00 0.0000000e+00 
5.8466667e+00 6.0300000e+00 0.0000000e+00 
5.8733333e+00 5.9700000e+00 0.0000000e+00 
5.8733333e+00 5.9900000e+00 0.0000000e+00 
5.8733333e+00 6.0100000e+00 0.0000000e+00 
5.8733333e+00 6.0300000e+00 0.0000000e+00 
5.9000000e+00 5.9700000e+00 0.0000000e+00 
5.9000000e+00 5.9900000e+00 0.0000000e+00 
5.9000000e+00 6.0100000e+00 0.0000000e+00 
5.9000000e+00 6.0300000e+00 0.0000000e+00 
5.9266667e+00 5.9700000e+00 0.0000000e+00 
5.9266667e+00 5.9900000e+00 0.0000000e+00 
5.9266667e+00 6.0100000e+00 0.0000000e+00 
5.9266667e+00 6.0300000e+00 0.0000000e+00 
5.9533333e+00 5.9700000e+00 0.0000000e+00 
5.9533333e+00 5.9900000e+00 0.0000000e+00 
5.9533333e+00 6.0100000e+00 0.0000000e+00 
5.9533333e+00 6.0300000e+00 0.0000000e+00 
5.9800000e+00 5.9700000e+00 0.0000000e+00 
5.9800000e+00 5.9900000e+00 0.0000000e+00 
5.9800000e+00 6.0100000e+00 0.0000000e+00 
5.9800000e+00 6.0300000e+00 0.0000000e+00 
6.0066667e+00 5.9700000e+00 0.0000000e+00 
6.0066667e+00 5.9900000e+00 0.0000000e+00 
6.0066667e+00 6.0100000e+00 0.0000000e+00 
6.0066667e+00 6.0300000e+00 0.0000000e+00 
6.0333333e+00 5.9700000e+00 0.0000000e+00 
6.0333333e+00 5.9900000e+00 0.0000000e+00 
6.0333333e+00 6.0100000e+00 0.0000000e+00 
6.0333333e+00 6.0300000e+00 0.0000000e+00 
6.0600000e+00 5.9700000e+00 0.0000000e+00 
6.0600000e+00 5.9900000e+00 0.0000000e+00 
6.0600000e+00 6.0100000e+00 0.0000000e+00 
6.0600000e+00 6.0300000e+00 0.0000000e+00 
6.0866667e+00 5.9700000e+00 0.0000000e+00 
6.0866667e+00 5.9900000e+00 0.0000000e+00 
6.0866667e+00 6.0100000e+00 0.0000000e+00 
6.0866667e+00 6.0300000e+00 0.0000000e+00 
6.1133333e+00 5.9700000e+00 0.0000000e+00 
6.1133333e+00 5.9900000e+00 0.0000000e+00 
6.1133333e+00 6.0100000e+00 0.0000000e+00 
6.1133333e+00 6.0300000e+00 0.0000000e+00 
6.1400000e+00 5.9700000e+00 0.0000000e+00 
6.1400000e+00 5.9900000e+00 0.0000000e+00 
6.1400000e+00 6.0100000e+00 0.0000000e+00 
6.1400000e+00 6.0300000e+00 0.0000000e+00 
6.1666667e+00 5.9700000e+00 0.0000000e+00 
6.1666667e+00 5.9900000e+00 0.0000000e+00 
6.1666667e+00 6.0100000e+00 0.0000000e+00 
6.1666667e+00 6.0300000e+00 0.0000000e+00 
6.1933333e+00 5.9700000e+00 0.0000000e+00 
6.1933333e+00 5.9900000e+00 0.0000000e+00 
6.1933333e+00 6.0100000e+00 0.0000000e+00 
6.1933333e+00 6.0300000e+00 0.0000000e+00 
6.2200000e+00 5.9700000e+00 0.0000000e+00 
6.2200000e+00 5.9900000e+00 0.0000000e+00 
6.2200000e+00 6.0100000e+00 0.0000000e+00 
6.2200000e+00 6.0300000e+00 0.0000000e+00 
6.2466667e+00 5.9700000e+00 0.0000000e+00 
6.2466667e+00 5.9900000e+00 0.0000000e+00 
6.2466667e+00 6.0100000e+00 0.0000000e+00 
6.2466667e+00 6.0300000e+00 0.0000000e+00 
6.2733333e+00 5.9700000e+00 0.0000000e+00 
6.2733333e+00 5.9900000e+00 0.0000000e+00 
6.2733333e+00 6.0100000e+00 0.0000000e+00 
6.2733333e+00 6.0300000e+00 0.0000000e+00 
6.3000000e+00 5.9700000e+00 0.0000000e+00 
6.3000000e+00 5.9900000e+00 0.0000000e+00 
6.3000000e+00 6.0100000e+00 0.0000000e+00 
6.3000000e+00 6.0300000e+00 0.0000000e+00 
6.3266667e+00 5.9700000e+00 0.0000000e+00 
6.3266667e+00 5.9900000e+00 0.0000000e+00 
6.3266667e+00 6.0100000e+00 0.0000000e+00 
6.3266667e+00 6.0300000e+00 0.0000000e+00 
6.3533333e+00 5.9700000e+00 0.0000000e+00 
6.3533333e+00 5.9900000e+00 0.0000000e+00 
6.3533333e+00 6.0100000e+00 0.0000000e+00 
6.3533333e+00 6.0300000e+00 0.0000000e+00 
6.3800000e+00 5.9700000e+00 0.0000000e+00 
6.3800000e+00 5.9900000e+00 0.0000000e+00 
6.3800000e+00 6.0100000e+00 0.0000000e+00 
6.3800000e+00 6.0300000e+00 0.0000000e+00 
6.4066667e+00 5.9700000e+00 0.0000000e+00 
6.4066667e+00 5.9900000e+00 0.0000000e+00 
6.4066667e+00 6.0100000e+00 0.0000000e+00 
6.4066667e+00 6.0300000e+00 0.0000000e+00 
6.4333333e+00 5.9700000e+00 0.0000000e+00 
6.4333333e+00 5.9900000e+00 0.0000000e+00 
6.4333333e+00 6.0100000e+00 0.0000000e+00 
6.4333333e+00 6.0300000e+00 0.0000000e+00 
6.4600000e+00 5.9700000e+00 0.0000000e+00 
6.4600000e+00 5.9900000e+00 0.0000000e+00 
6.4600000e+00 6.0100000e+00 0.0000000e+00 
6.4600000e+00 6.0300000e+00 0.0000000e+00 
6.4866667e+00 5.9700000e+00 0.0000000e+00 
6.4866667e+00 5.9900000e+00 0.0000000e+00 
6.4866667e+00 6.0100000e+00 0.0000000e+00 
6.4866667e+00 6.0300000e+00 0.0000000e+00 
6.5133333e+00 5.9700000e+00 0.0000000e+00 
6.5133333e+00 5.9900000e+00 0.0000000e+00 
6.5133333e+00 6.0100000e+00 0.0000000e+00 
6.5133333e+00 6.0300000e+00 0.0000000e+00 
6.5400000e+00 5.9700000e+00 0.0000000e+00 
6.5400000e+00 5.9900000e+00 0.0000000e+00 
6.5400000e+00 6.0100000e+00 0.0000000e+00 
6.5400000e+00 6.0300000e+00 0.0000000e+00 
6.5666667e+00 5.9700000e+00 0.0000000e+00 
6.5666667e+00 5.9900000e+00 0.0000000e+00 
6.5666667e+00 6.0100000e+00 0.0000000e+00 
6.5666667e+00 6.0300000e+00 0.0000000e+00 
6.5933333e+00 5.9700000e+00 0.0000000e+00 
6.5933333e+00 5.9900000e+00 0.0000000e+00 
6.5933333e+00 6.0100000e+00 0.0000000e+00 
6.5933333e+00 6.0300000e+00 0.0000000e+00 
6.6200000e+00 5.9700000e+00 0.0000000e+00 
6.6200000e+00 5.9900000e+00 0.0000000e+00 
6.6200000e+00 6.0100000e+00 0.0000000e+00 
6.6200000e+00 6.0300000e+00 0.0000000e+00 
6.6466667e+00 5.9700000e+00 0.0000000e+00 
6.6466667e+00 5.9900000e+00 0.0000000e+00 
6.6466667e+00 6.0100000e+00 0.0000000e+00 
6.6466667e+00 6.0300000e+00 0.0000000e+00 
6.6733333e+00 5.9700000e+00 0.0000000e+00 
6.6733333e+00 5.9900000e+00 0.0000000e+00 
6.6733333e+00 6.0100000e+00 0.0000000e+00 
6.6733333e+00 6.0300000e+00 0.0000000e+00 
6.7000000e+00 5.9700000e+00 0.0000000e+00 
6.7000000e+00 5.9900000e+00 0.0000000e+00 
6.7000000e+00 6.0100000e+00 0.0000000e+00 
6.7000000e+00 6.0300000e+00 0.0000000e+00 
6.7266667e+00 5.9700000e+00 0.0000000e+00 
6.7266667e+00 5.9900000e+00 0.0000000e+00 
6.7266667e+00 6.0100000e+00 0.0000000e+00 
6.7266667e+00 6.0300000e+00 0.0000000e+00 
6.7533333e+00 5.9700000e+00 0.0000000e+00 
6.7533333e+00 5.9900000e+00 0.0000000e+00 
6.7533333e+00 6.0100000e+00 0.0000000e+00 
6.7533333e+00 6.0300000e+00 0.0000000e+00 
6.7800000e+00 5.9700000e+00 0.0000000e+00 
6.7800000e+00 5.9900000e+00 0.0000000e+00 
6.7800000e+00 6.0100000e+00 0.0000000e+00 
6.7800000e+00 6.0300000e+00 0.0000000e+00 
6.8066667e+00 5.9700000e+00 0.0000000e+00 
6.8066667e+00 5.9900000e+00 0.0000000e+00 
6.8066667e+00 6.0100000e+00 0.0000000e+00 
6.8066667e+00 6.0300000e+00 0.0000000e+00 
6.8333333e+00 5.9700000e+00 0.0000000e+00 
6.8333333e+00 5.9900000e+00 0.0000000e+00 
6.8333333e+00 6.0100000e+00 0.0000000e+00 
6.8333333e+00 6.0300000e+00 0.0000000e+00 
6.8600000e+00 5.9700000e+00 0.0000000e+00 
6.8600000e+00 5.9900000e+00 0.0000000e+00 
6.8600000e+00 6.0100000e+00 0.0000000e+00 
6.8600000e+00 6.0300000e+00 0.0000000e+00 
6.8866667e+00 5.9700000e+00 0.0000000e+00 
6.8866667e+00 5.9900000e+00 0.0000000e+00 
6.8866667e+00 6.0100000e+00 0.0000000e+00 
6.8866667e+00 6.0300000e+00 0.0000000e+00 
6.9133333e+00 5.9700000e+00 0.0000000e+00 
6.9133333e+00 5.9900000e+00 0.0000000e+00 
6.9133333e+00 6.0100000e+00 0.0000000e+00 
6.9133333e+00 6.0300000e+00 0.0000000e+00 
6.9400000e+00 5.9700000e+00 0.0000000e+00 
6.9400000e+00 5.9900000e+00 0.0000000e+00 
6.9400000e+00 6.0100000e+00 0.0000000e+00 
6.9400000e+00 6.0300000e+00 0.0000000e+00 
6.9666667e+00 5.9700000e+00 0.0000000e+00 
6.9666667e+00 5.9900000e+00 0.0000000e+00 
6.9666667e+00 6.0100000e+00 0.0000000e+00 
6.9666667e+00 6.0300000e+00 0.0000000e+00 
6.9933333e+00 5.9700000e+00 0.0000000e+00 
6.9933333e+00 5.9900000e+00 0.0000000e+00 
6.9933333e+00 6.0100000e+00 0.0000000e+00 
6.9933333e+00 6.0300000e+00 0.0000000e+00 
7.0200000e+00 5.9700000e+00 0.0000000e+00 
7.0200000e+00 5.9900000e+00 0.0000000e+00 
[...]
POINT_DATA 604
FIELD FieldData 2
DISPLACEMENT 3 604  float
0.0000000e+00 0.0000000e+00 0.0000000e+00 
0.0000000e+00 0.0000000e+00 0.0000000e+00 
-1.7948188e-07 -1.1048432e-07 0.0000000e+00 
-5.8746291e-08 -7.1950028e-08 0.0000000e+00 
0.0000000e+00 0.0000000e+00 0.0000000e+00 
5.4948231e-08 -7.2442339e-08 0.0000000e+00 
-3.6105204e-07 -3.3900975e-07 0.0000000e+00 
-1.2077000e-07 -3.1656345e-07 0.0000000e+00 
0.0000000e+00 0.0000000e+00 0.0000000e+00 
1.7971499e-07 -1.0904505e-07 0.0000000e+00 
1.1909567e-07 -3.2234190e-07 0.0000000e+00 
-5.3785327e-07 -7.5490617e-07 0.0000000e+00 
3.6007162e-07 -3.6130607e-07 0.0000000e+00 
-1.7870119e-07 -7.2269675e-07 0.0000000e+00 
1.7828397e-07 -7.2421101e-07 0.0000000e+00 
5.3723809e-07 -7.5326338e-07 0.0000000e+00 
-7.0989376e-07 -1.3020090e-06 0.0000000e+00 
-2.3584213e-07 -1.2804384e-06 0.0000000e+00 
2.3625538e-07 -1.2856052e-06 0.0000000e+00 
7.1018822e-07 -1.3236915e-06 0.0000000e+00 
-8.7738728e-07 -2.0240158e-06 0.0000000e+00 
-2.9169825e-07 -1.9934656e-06 0.0000000e+00 
2.9251944e-07 -1.9943575e-06 0.0000000e+00 
8.7905283e-07 -2.0219024e-06 0.0000000e+00 
-1.0398774e-06 -2.8697960e-06 0.0000000e+00 
-3.4647377e-07 -2.8490337e-06 0.0000000e+00 
3.4700481e-07 -2.8556931e-06 0.0000000e+00 
1.0443250e-06 -2.8915851e-06 0.0000000e+00 
-1.1998758e-06 -3.8713072e-06 0.0000000e+00 
-3.9626392e-07 -3.8511961e-06 0.0000000e+00 
4.0366369e-07 -3.8578381e-06 0.0000000e+00 
1.2035768e-06 -3.8929068e-06 0.0000000e+00 
-1.3541410e-06 -5.0245189e-06 0.0000000e+00 
-4.4830295e-07 -4.9961939e-06 0.0000000e+00 
4.5526032e-07 -4.9970463e-06 0.0000000e+00 
1.3601993e-06 -5.0223844e-06 0.0000000e+00 
-1.5048566e-06 -6.2906212e-06 0.0000000e+00 
-4.9873858e-07 -6.2725212e-06 0.0000000e+00 
5.0570595e-07 -6.2775402e-06 0.0000000e+00 
1.5120900e-06 -6.3117335e-06 0.0000000e+00 
-1.6519871e-06 -7.7123561e-06 0.0000000e+00 
-5.4761027e-07 -7.6853236e-06 0.0000000e+00 
5.5498261e-07 -7.6867594e-06 0.0000000e+00 
1.6593669e-06 -7.7105190e-06 0.0000000e+00 
-1.7949552e-06 -9.2402754e-06 0.0000000e+00 
-5.9520412e-07 -9.2235826e-06 0.0000000e+00 
6.0283131e-07 -9.2285570e-06 0.0000000e+00 
1.8026917e-06 -9.2613186e-06 0.0000000e+00 
-1.9340469e-06 -1.0916403e-05 0.0000000e+00 
-6.4147725e-07 -1.0890775e-05 0.0000000e+00 
6.4932455e-07 -1.0892190e-05 0.0000000e+00 
1.9418587e-06 -1.0914543e-05 0.0000000e+00 
-2.0691133e-06 -1.2691709e-05 0.0000000e+00 
-6.8649578e-07 -1.2676318e-05 0.0000000e+00 
6.9442208e-07 -1.2681229e-05 0.0000000e+00 
2.0771067e-06 -1.2712512e-05 0.0000000e+00 
-2.2003551e-06 -1.4607918e-05 0.0000000e+00 
-7.3021156e-07 -1.4583682e-05 0.0000000e+00 
7.3820338e-07 -1.4585084e-05 0.0000000e+00 
2.2083136e-06 -1.4606077e-05 0.0000000e+00 
-2.3276880e-06 -1.6616547e-05 0.0000000e+00 
-7.7268022e-07 -1.6602448e-05 0.0000000e+00 
7.8063797e-07 -1.6607316e-05 0.0000000e+00 
2.3356578e-06 -1.6637169e-05 0.0000000e+00 
-2.4512209e-06 -1.8758958e-05 0.0000000e+00 
-8.1387181e-07 -1.8736088e-05 0.0000000e+00 
8.2178850e-07 -1.8737488e-05 0.0000000e+00 
2.4591073e-06 -1.8757155e-05 0.0000000e+00 
-2.5709677e-06 -2.0987135e-05 0.0000000e+00 
-8.5381821e-07 -2.0974322e-05 0.0000000e+00 
8.6164679e-07 -2.0979174e-05 0.0000000e+00 
2.5787439e-06 -2.1007651e-05 0.0000000e+00 
-2.6869395e-06 -2.3342172e-05 0.0000000e+00 
-8.9250439e-07 -2.3320654e-05 0.0000000e+00 
9.0026133e-07 -2.3322062e-05 0.0000000e+00 
2.6946305e-06 -2.3340451e-05 0.0000000e+00 
-2.7992792e-06 -2.5776525e-05 0.0000000e+00 
-9.2994997e-07 -2.5764923e-05 0.0000000e+00 
9.3763422e-07 -2.5769755e-05 0.0000000e+00 
2.8067179e-06 -2.5796837e-05 0.0000000e+00 
-2.9075177e-06 -2.8330991e-05 0.0000000e+00 
-9.6636218e-07 -2.8310933e-05 0.0000000e+00 
9.7359187e-07 -2.8311792e-05 0.0000000e+00 
2.9155457e-06 -2.8329067e-05 0.0000000e+00 
-3.0115880e-06 -3.0957979e-05 0.0000000e+00 
-1.0018067e-06 -3.0947053e-05 0.0000000e+00 
1.0080824e-06 -3.0953390e-05 0.0000000e+00 
3.0212688e-06 -3.0978589e-05 0.0000000e+00 
-3.1135339e-06 -3.3687743e-05 0.0000000e+00 
-1.0326087e-06 -3.3677483e-05 0.0000000e+00 
1.0448407e-06 -3.3683811e-05 0.0000000e+00 
3.1219117e-06 -3.3708422e-05 0.0000000e+00 
-3.2101855e-06 -3.6517134e-05 0.0000000e+00 
-1.0655996e-06 -3.6499006e-05 0.0000000e+00 
1.0770317e-06 -3.6499933e-05 0.0000000e+00 
3.2207878e-06 -3.6515395e-05 0.0000000e+00 
-3.3041329e-06 -3.9409484e-05 0.0000000e+00 
-1.0970472e-06 -3.9401143e-05 0.0000000e+00 
1.1084397e-06 -3.9406099e-05 0.0000000e+00 
3.3153783e-06 -3.9430191e-05 0.0000000e+00 
-3.3946665e-06 -4.2406216e-05 0.0000000e+00 
-1.1271297e-06 -4.2389198e-05 0.0000000e+00 
1.1389065e-06 -4.2390750e-05 0.0000000e+00 
3.4064628e-06 -4.2404900e-05 0.0000000e+00 
-3.4819139e-06 -4.5459934e-05 0.0000000e+00 
-1.1559613e-06 -4.5452974e-05 0.0000000e+00 
1.1683370e-06 -4.5458030e-05 0.0000000e+00 
3.4939741e-06 -4.5481101e-05 0.0000000e+00 
-3.5654375e-06 -4.8612134e-05 0.0000000e+00 
-1.1836494e-06 -4.8596333e-05 0.0000000e+00 
1.1966478e-06 -4.8597945e-05 0.0000000e+00 
3.5784201e-06 -4.8610935e-05 0.0000000e+00 
-3.6457897e-06 -5.1815003e-05 0.0000000e+00 
-1.2100963e-06 -5.1809340e-05 0.0000000e+00 
1.2239551e-06 -5.1814486e-05 0.0000000e+00 
3.6593024e-06 -5.1836499e-05 0.0000000e+00 
-3.7224559e-06 -5.5110568e-05 0.0000000e+00 
-1.2354107e-06 -5.5095975e-05 0.0000000e+00 
1.2501729e-06 -5.5097655e-05 0.0000000e+00 
3.7372073e-06 -5.5109518e-05 0.0000000e+00 
-3.7960280e-06 -5.8450671e-05 0.0000000e+00 
-1.2594899e-06 -5.8446301e-05 0.0000000e+00 
1.2754222e-06 -5.8451552e-05 0.0000000e+00 
3.8115922e-06 -5.8472543e-05 0.0000000e+00 
-3.8659473e-06 -6.1877821e-05 0.0000000e+00 
-1.2824555e-06 -6.1864415e-05 0.0000000e+00 
1.2996034e-06 -6.1866168e-05 0.0000000e+00 
3.8830892e-06 -6.1876927e-05 0.0000000e+00 
-3.9328454e-06 -6.5343451e-05 0.0000000e+00 
-1.3041944e-06 -6.5340362e-05 0.0000000e+00 
1.3228482e-06 -6.5345732e-05 0.0000000e+00 
3.9511131e-06 -6.5365735e-05 0.0000000e+00 
-3.9961415e-06 -6.8890603e-05 0.0000000e+00 
-1.3248303e-06 -6.8878376e-05 0.0000000e+00 
1.3450544e-06 -6.8880204e-05 0.0000000e+00 
4.0163198e-06 -6.8889892e-05 0.0000000e+00 
-4.0565182e-06 -7.2470384e-05 0.0000000e+00 
-1.3442585e-06 -7.2468476e-05 0.0000000e+00 
1.3663454e-06 -7.2473945e-05 0.0000000e+00 
4.0780709e-06 -7.2492902e-05 0.0000000e+00 
-4.1129748e-06 -7.6126240e-05 0.0000000e+00 
-1.3628226e-06 -7.6115314e-05 0.0000000e+00 
1.3863994e-06 -7.6116606e-05 0.0000000e+00 
4.1374438e-06 -7.6125388e-05 0.0000000e+00 
-4.1658818e-06 -7.9808495e-05 0.0000000e+00 
-1.3804831e-06 -7.9807176e-05 0.0000000e+00 
1.4052690e-06 -7.9814387e-05 0.0000000e+00 
4.1941113e-06 -7.9831739e-05 0.0000000e+00 
-4.2170817e-06 -8.3549869e-05 0.0000000e+00 
-1.3933601e-06 -8.3549256e-05 0.0000000e+00 
1.4268845e-06 -8.3556480e-05 0.0000000e+00 
4.2463078e-06 -8.3573466e-05 0.0000000e+00 
-4.2632292e-06 -8.7348028e-05 0.0000000e+00 
-1.4087825e-06 -8.7338772e-05 0.0000000e+00 
1.4439124e-06 -8.7340223e-05 0.0000000e+00 
4.2975030e-06 -8.7347461e-05 0.0000000e+00 
-4.3073063e-06 -9.1163843e-05 0.0000000e+00 
-1.4227174e-06 -9.1165114e-05 0.0000000e+00 
1.4604335e-06 -9.1170962e-05 0.0000000e+00 
4.3447581e-06 -9.1187742e-05 0.0000000e+00 
-4.3483308e-06 -9.5043054e-05 0.0000000e+00 
-1.4354275e-06 -9.5034729e-05 0.0000000e+00 
1.4762001e-06 -9.5036871e-05 0.0000000e+00 
4.3891432e-06 -9.5042962e-05 0.0000000e+00 
-4.3866166e-06 -9.8934641e-05 0.0000000e+00 
-1.4469901e-06 -9.8937197e-05 0.0000000e+00 
1.4911575e-06 -9.8943195e-05 0.0000000e+00 
4.4303816e-06 -9.8959208e-05 0.0000000e+00 
-4.4215642e-06 -1.0288477e-04 0.0000000e+00 
-1.4575654e-06 -1.0287748e-04 0.0000000e+00 
1.5051661e-06 -1.0287970e-04 0.0000000e+00 
4.4691650e-06 -1.0288480e-04 0.0000000e+00 
-4.4538701e-06 -1.0684167e-04 0.0000000e+00 
-1.4670208e-06 -1.0684540e-04 0.0000000e+00 
1.5183820e-06 -1.0685152e-04 0.0000000e+00 
4.5048339e-06 -1.0686670e-04 0.0000000e+00 
-4.4829207e-06 -1.1085233e-04 0.0000000e+00 
-1.4755030e-06 -1.1084607e-04 0.0000000e+00 
1.5306794e-06 -1.1084837e-04 0.0000000e+00 
4.5381005e-06 -1.1085251e-04 0.0000000e+00 
-4.5093954e-06 -1.1486440e-04 0.0000000e+00 
-1.4828889e-06 -1.1486928e-04 0.0000000e+00 
1.5422073e-06 -1.1487553e-04 0.0000000e+00 
4.5683247e-06 -1.1488991e-04 0.0000000e+00 
-4.5326929e-06 -1.1892557e-04 0.0000000e+00 
-1.4893260e-06 -1.1892032e-04 0.0000000e+00 
1.5528401e-06 -1.1892269e-04 0.0000000e+00 
4.5962138e-06 -1.1892590e-04 0.0000000e+00 
-4.5534858e-06 -1.2298292e-04 0.0000000e+00 
-1.4946929e-06 -1.2298892e-04 0.0000000e+00 
1.5627279e-06 -1.2299530e-04 0.0000000e+00 
4.6211388e-06 -1.2300890e-04 0.0000000e+00 
-4.5711997e-06 -1.2708483e-04 0.0000000e+00 
-1.4991283e-06 -1.2708056e-04 0.0000000e+00 
1.5717555e-06 -1.2708300e-04 0.0000000e+00 
4.6437880e-06 -1.2708531e-04 0.0000000e+00 
-4.5865230e-06 -1.3117795e-04 0.0000000e+00 
-1.5025310e-06 -1.3118494e-04 0.0000000e+00 
1.5800555e-06 -1.3119142e-04 0.0000000e+00 
4.6635233e-06 -1.3120416e-04 0.0000000e+00 
-4.5984603e-06 -1.3531117e-04 0.0000000e+00 
-1.5052747e-06 -1.3530802e-04 0.0000000e+00 
1.5872813e-06 -1.3530985e-04 0.0000000e+00 
4.6814612e-06 -1.3531145e-04 0.0000000e+00 
-4.6073171e-06 -1.3943031e-04 0.0000000e+00 
-1.5073415e-06 -1.3943761e-04 0.0000000e+00 
1.5934743e-06 -1.3944599e-04 0.0000000e+00 
4.6973570e-06 -1.3945725e-04 0.0000000e+00 
-4.6152607e-06 -1.4357236e-04 0.0000000e+00 
-1.5044419e-06 -1.4358026e-04 0.0000000e+00 
1.6030054e-06 -1.4358865e-04 0.0000000e+00 
4.7091702e-06 -1.4359965e-04 0.0000000e+00 
-4.6186394e-06 -1.4773555e-04 0.0000000e+00 
-1.5046892e-06 -1.4773372e-04 0.0000000e+00 
1.6077540e-06 -1.4773570e-04 0.0000000e+00 
4.7207615e-06 -1.4773605e-04 0.0000000e+00 
-4.6206379e-06 -1.5187753e-04 0.0000000e+00 
-1.5036519e-06 -1.5188713e-04 0.0000000e+00 
1.6122361e-06 -1.5189395e-04 0.0000000e+00 
4.7290351e-06 -1.5190504e-04 0.0000000e+00 
-4.6203611e-06 -1.5604963e-04 0.0000000e+00 
-1.5015964e-06 -1.5604846e-04 0.0000000e+00 
1.6162128e-06 -1.5605118e-04 0.0000000e+00 
4.7350300e-06 -1.5605060e-04 0.0000000e+00 
-4.6180147e-06 -1.6019651e-04 0.0000000e+00 
-1.4986471e-06 -1.6020714e-04 0.0000000e+00 
1.6196025e-06 -1.6021410e-04 0.0000000e+00 
4.7386364e-06 -1.6022466e-04 0.0000000e+00 
-4.6131310e-06 -1.6436992e-04 0.0000000e+00 
-1.4949608e-06 -1.6436951e-04 0.0000000e+00 
1.6222884e-06 -1.6437230e-04 0.0000000e+00 
4.7404675e-06 -1.6437096e-04 0.0000000e+00 
-4.6063392e-06 -1.6851382e-04 0.0000000e+00 
-1.4904304e-06 -1.6852533e-04 0.0000000e+00 
1.6244214e-06 -1.6853240e-04 0.0000000e+00 
4.7400047e-06 -1.6854238e-04 0.0000000e+00 
-4.5971584e-06 -1.7268083e-04 0.0000000e+00 
-1.4851986e-06 -1.7268116e-04 0.0000000e+00 
1.6259029e-06 -1.7268400e-04 0.0000000e+00 
4.7378767e-06 -1.7268197e-04 0.0000000e+00 
-4.5862017e-06 -1.7681442e-04 0.0000000e+00 
-1.4791671e-06 -1.7682676e-04 0.0000000e+00 
1.6268757e-06 -1.7683395e-04 0.0000000e+00 
4.7335949e-06 -1.7684340e-04 0.0000000e+00 
-4.5729984e-06 -1.8096793e-04 0.0000000e+00 
-1.4724822e-06 -1.8096894e-04 0.0000000e+00 
1.6272420e-06 -1.8097185e-04 0.0000000e+00 
4.7277785e-06 -1.8096917e-04 0.0000000e+00 
-4.5581585e-06 -1.8508434e-04 0.0000000e+00 
-1.4650438e-06 -1.8509748e-04 0.0000000e+00 
1.6271465e-06 -1.8510478e-04 0.0000000e+00 
4.7199554e-06 -1.8511375e-04 0.0000000e+00 
-4.5412356e-06 -1.8921775e-04 0.0000000e+00 
-1.4569919e-06 -1.8921940e-04 0.0000000e+00 
1.6265018e-06 -1.8922237e-04 0.0000000e+00 
4.7107188e-06 -1.8921911e-04 0.0000000e+00 
-4.5228594e-06 -1.9331075e-04 0.0000000e+00 
-1.4482440e-06 -1.9332453e-04 0.0000000e+00 
1.6254340e-06 -1.9333192e-04 0.0000000e+00 
4.6995885e-06 -1.9334036e-04 0.0000000e+00 
-4.5021154e-06 -1.9741806e-04 0.0000000e+00 
-1.4392023e-06 -1.9742047e-04 0.0000000e+00 
1.6235982e-06 -1.9742275e-04 0.0000000e+00 
4.6876220e-06 -1.9741913e-04 0.0000000e+00 
-4.4792025e-06 -2.0148135e-04 0.0000000e+00 
-1.4298754e-06 -2.0149501e-04 0.0000000e+00 
1.6210145e-06 -2.0150446e-04 0.0000000e+00 
4.6747811e-06 -2.0151171e-04 0.0000000e+00 
-4.4566628e-06 -2.0554234e-04 0.0000000e+00 
-1.4155466e-06 -2.0555643e-04 0.0000000e+00 
1.6225243e-06 -2.0556592e-04 0.0000000e+00 
4.6586637e-06 -2.0557310e-04 0.0000000e+00 
-4.4305212e-06 -2.0960035e-04 0.0000000e+00 
-1.4051466e-06 -2.0960349e-04 0.0000000e+00 
1.6191861e-06 -2.0960589e-04 0.0000000e+00 
4.6435481e-06 -2.0960156e-04 0.0000000e+00 
-4.4041483e-06 -2.1360992e-04 0.0000000e+00 
-1.3938199e-06 -2.1362541e-04 0.0000000e+00 
1.6159694e-06 -2.1363316e-04 0.0000000e+00 
4.6262345e-06 -2.1364091e-04 0.0000000e+00 
-4.3767557e-06 -2.1762887e-04 0.0000000e+00 
-1.3818456e-06 -2.1763223e-04 0.0000000e+00 
1.6126406e-06 -2.1763543e-04 0.0000000e+00 
4.6076412e-06 -2.1763052e-04 0.0000000e+00 
-4.3483869e-06 -2.2159733e-04 0.0000000e+00 
-1.3693764e-06 -2.2161348e-04 0.0000000e+00 
1.6090854e-06 -2.2162136e-04 0.0000000e+00 
4.5878890e-06 -2.2162902e-04 0.0000000e+00 
-4.3187337e-06 -2.2557373e-04 0.0000000e+00 
-1.3565748e-06 -2.2557743e-04 0.0000000e+00 
1.6051998e-06 -2.2558068e-04 0.0000000e+00 
4.5674048e-06 -2.2557540e-04 0.0000000e+00 
-4.2882710e-06 -2.2949730e-04 0.0000000e+00 
-1.3433387e-06 -2.2951395e-04 0.0000000e+00 
1.6011197e-06 -2.2952195e-04 0.0000000e+00 
4.5458749e-06 -2.2952945e-04 0.0000000e+00 
-4.2567015e-06 -2.3342760e-04 0.0000000e+00 
-1.3298093e-06 -2.3343159e-04 0.0000000e+00 
1.5967611e-06 -2.3343489e-04 0.0000000e+00 
4.5237073e-06 -2.3342930e-04 0.0000000e+00 
-4.2244387e-06 -2.3730309e-04 0.0000000e+00 
-1.3158978e-06 -2.3732019e-04 0.0000000e+00 
1.5922440e-06 -2.3732831e-04 0.0000000e+00 
4.5006434e-06 -2.3733570e-04 0.0000000e+00 
-4.1912308e-06 -2.4118432e-04 0.0000000e+00 
-1.3017405e-06 -2.4118856e-04 0.0000000e+00 
1.5874870e-06 -2.4119191e-04 0.0000000e+00 
4.4770388e-06 -2.4118605e-04 0.0000000e+00 
-4.1574362e-06 -2.4500901e-04 0.0000000e+00 
-1.2872533e-06 -2.4502652e-04 0.0000000e+00 
1.5826033e-06 -2.4503475e-04 0.0000000e+00 
4.4526824e-06 -2.4504207e-04 0.0000000e+00 
-4.1228722e-06 -2.4883866e-04 0.0000000e+00 
-1.2725539e-06 -2.4884312e-04 0.0000000e+00 
1.5775275e-06 -2.4884651e-04 0.0000000e+00 
4.4278545e-06 -2.4884044e-04 0.0000000e+00 
-4.0878642e-06 -2.5261041e-04 0.0000000e+00 
-1.2575863e-06 -2.5262816e-04 0.0000000e+00 
1.5723422e-06 -2.5263647e-04 0.0000000e+00 
4.4023691e-06 -2.5264364e-04 0.0000000e+00 
-4.0517569e-06 -2.5638650e-04 0.0000000e+00 
-1.2427472e-06 -2.5639131e-04 0.0000000e+00 
1.5667023e-06 -2.5639391e-04 0.0000000e+00 
4.3769724e-06 -2.5638785e-04 0.0000000e+00 
-4.0143199e-06 -2.6010293e-04 0.0000000e+00 
-1.2281088e-06 -2.6012008e-04 0.0000000e+00 
1.5605491e-06 -2.6013062e-04 0.0000000e+00 
4.3520288e-06 -2.6013685e-04 0.0000000e+00 
-3.9787319e-06 -2.6380741e-04 0.0000000e+00 
-1.2083699e-06 -2.6382477e-04 0.0000000e+00 
1.5592815e-06 -2.6383537e-04 0.0000000e+00 
4.3244463e-06 -2.6384169e-04 0.0000000e+00 
-3.9405469e-06 -2.6750020e-04 0.0000000e+00 
-1.1934764e-06 -2.6750514e-04 0.0000000e+00 
1.5529403e-06 -2.6750780e-04 0.0000000e+00 
4.2988970e-06 -2.6750152e-04 0.0000000e+00 
-3.9030367e-06 -2.7113169e-04 0.0000000e+00 
-1.1780547e-06 -2.7115014e-04 0.0000000e+00 
1.5469825e-06 -2.7115871e-04 0.0000000e+00 
4.2722337e-06 -2.7116598e-04 0.0000000e+00 
-3.8658473e-06 -2.7476718e-04 0.0000000e+00 
-1.1623101e-06 -2.7477194e-04 0.0000000e+00 
1.5412353e-06 -2.7477544e-04 0.0000000e+00 
4.2448928e-06 -2.7476886e-04 0.0000000e+00 
-3.8284395e-06 -2.7834116e-04 0.0000000e+00 
-1.1465023e-06 -2.7835987e-04 0.0000000e+00 
1.5354629e-06 -2.7836852e-04 0.0000000e+00 
4.2175300e-06 -2.7837596e-04 0.0000000e+00 
-3.7910197e-06 -2.8191930e-04 0.0000000e+00 
-1.1307027e-06 -2.8192405e-04 0.0000000e+00 
1.5296359e-06 -2.8192754e-04 0.0000000e+00 
4.1900161e-06 -2.8192089e-04 0.0000000e+00 
-3.7534954e-06 -2.8543536e-04 0.0000000e+00 
-1.1149008e-06 -2.8545416e-04 0.0000000e+00 
1.5237865e-06 -2.8546284e-04 0.0000000e+00 
4.1625574e-06 -2.8547035e-04 0.0000000e+00 
-3.7161203e-06 -2.8895580e-04 0.0000000e+00 
-1.0991312e-06 -2.8896049e-04 0.0000000e+00 
1.5179212e-06 -2.8896398e-04 0.0000000e+00 
4.1349748e-06 -2.8895730e-04 0.0000000e+00 
-3.6787079e-06 -2.9241393e-04 0.0000000e+00 
-1.0834098e-06 -2.9243277e-04 0.0000000e+00 
1.5120449e-06 -2.9244147e-04 0.0000000e+00 
4.1075664e-06 -2.9244906e-04 0.0000000e+00 
-3.6415865e-06 -2.9587680e-04 0.0000000e+00 
-1.0677556e-06 -2.9588141e-04 0.0000000e+00 
1.5061792e-06 -2.9588489e-04 0.0000000e+00 
4.0800756e-06 -2.9587820e-04 0.0000000e+00 
-3.6044937e-06 -2.9927735e-04 0.0000000e+00 
-1.0521990e-06 -2.9929616e-04 0.0000000e+00 
1.5003134e-06 -2.9930488e-04 0.0000000e+00 
4.0528751e-06 -2.9931255e-04 0.0000000e+00 
-3.5678464e-06 -3.0268306e-04 0.0000000e+00 
-1.0367310e-06 -3.0268759e-04 0.0000000e+00 
1.4944964e-06 -3.0269104e-04 0.0000000e+00 
4.0256156e-06 -3.0268440e-04 0.0000000e+00 
-3.5313401e-06 -3.0602684e-04 0.0000000e+00 
-1.0214181e-06 -3.0604546e-04 0.0000000e+00 
1.4886800e-06 -3.0605414e-04 0.0000000e+00 
3.9987102e-06 -3.0606178e-04 0.0000000e+00 
-3.4949053e-06 -3.0937628e-04 0.0000000e+00 
-1.0065375e-06 -3.0938087e-04 0.0000000e+00 
1.4826274e-06 -3.0938342e-04 0.0000000e+00 
3.9722916e-06 -3.0937704e-04 0.0000000e+00 
-3.4576327e-06 -3.1266373e-04 0.0000000e+00 
-9.9231104e-07 -3.1268126e-04 0.0000000e+00 
1.4761241e-06 -3.1269212e-04 0.0000000e+00 
3.9473764e-06 -3.1269889e-04 0.0000000e+00 
-3.4233969e-06 -3.1594077e-04 0.0000000e+00 
-9.7306508e-07 -3.1595821e-04 0.0000000e+00 
1.4749238e-06 -3.1596911e-04 0.0000000e+00 
3.9201492e-06 -3.1597592e-04 0.0000000e+00 
-3.3874727e-06 -3.1920790e-04 0.0000000e+00 
-9.5927729e-07 -3.1921219e-04 0.0000000e+00 
1.4685339e-06 -3.1921465e-04 0.0000000e+00 
3.8955163e-06 -3.1920841e-04 0.0000000e+00 
-3.3527748e-06 -3.2241403e-04 0.0000000e+00 
-9.4534943e-07 -3.2243219e-04 0.0000000e+00 
1.4626180e-06 -3.2244076e-04 0.0000000e+00 
3.8706646e-06 -3.2244866e-04 0.0000000e+00 
-3.3195200e-06 -3.2562776e-04 0.0000000e+00 
-9.3134295e-07 -3.2563159e-04 0.0000000e+00 
1.4571409e-06 -3.2563488e-04 0.0000000e+00 
3.8454241e-06 -3.2562855e-04 0.0000000e+00 
-3.2865395e-06 -3.2878195e-04 0.0000000e+00 
-9.1765646e-07 -3.2879997e-04 0.0000000e+00 
1.4517151e-06 -3.2880851e-04 0.0000000e+00 
3.8210556e-06 -3.2881666e-04 0.0000000e+00 
-3.2545886e-06 -3.3194480e-04 0.0000000e+00 
-9.0422795e-07 -3.3194835e-04 0.0000000e+00 
1.4464357e-06 -3.3195157e-04 0.0000000e+00 
3.7968408e-06 -3.3194538e-04 0.0000000e+00 
-3.2230034e-06 -3.3504905e-04 0.0000000e+00 
-8.9116338e-07 -3.3506676e-04 0.0000000e+00 
1.4412038e-06 -3.3507522e-04 0.0000000e+00 
3.7735287e-06 -3.3508350e-04 0.0000000e+00 
-3.1925526e-06 -3.3816301e-04 0.0000000e+00 
-8.7836641e-07 -3.3816627e-04 0.0000000e+00 
1.4361467e-06 -3.3816943e-04 0.0000000e+00 
3.7503788e-06 -3.3816342e-04 0.0000000e+00 
-3.1625060e-06 -3.4121963e-04 0.0000000e+00 
-8.6596227e-07 -3.4123701e-04 0.0000000e+00 
1.4311433e-06 -3.4124538e-04 0.0000000e+00 
3.7281986e-06 -3.4125380e-04 0.0000000e+00 
-3.1336701e-06 -3.4428708e-04 0.0000000e+00 
-8.5384457e-07 -3.4429004e-04 0.0000000e+00 
1.4263281e-06 -3.4429313e-04 0.0000000e+00 
3.7062011e-06 -3.4428731e-04 0.0000000e+00 
-3.1052696e-06 -3.4729856e-04 0.0000000e+00 
-8.4214450e-07 -3.4731557e-04 0.0000000e+00 
1.4215711e-06 -3.4732385e-04 0.0000000e+00 
3.6852300e-06 -3.4733240e-04 0.0000000e+00 
-3.0781608e-06 -3.5032200e-04 0.0000000e+00 
-8.3073453e-07 -3.5032467e-04 0.0000000e+00 
1.4170249e-06 -3.5032768e-04 0.0000000e+00 
3.6644399e-06 -3.5032209e-04 0.0000000e+00 
-3.0515587e-06 -3.5329112e-04 0.0000000e+00 
-8.1977173e-07 -3.5330762e-04 0.0000000e+00 
1.4125308e-06 -3.5331577e-04 0.0000000e+00 
3.6446749e-06 -3.5332434e-04 0.0000000e+00 
-3.0258104e-06 -3.5627334e-04 0.0000000e+00 
-8.0941370e-07 -3.5627588e-04 0.0000000e+00 
1.4079537e-06 -3.5627796e-04 0.0000000e+00 
3.6255899e-06 -3.5627278e-04 0.0000000e+00 
-2.9995605e-06 -3.5920233e-04 0.0000000e+00 
-7.9997105e-07 -3.5921750e-04 0.0000000e+00 
1.4029737e-06 -3.5922764e-04 0.0000000e+00 
3.6085903e-06 -3.5923541e-04 0.0000000e+00 