# vtk DataFile Version 4.0
vtk output
ASCII
DATASET UNSTRUCTURED_GRID
POINTS 604 float
5.5000000e+00 5.9700000e+00 0.0000000e+00 
5.5000000e+00 5.9900000e+00 0.0000000e+00 
5.5266667e+00 5.9700000e+00 0.0000000e+00 
5.5266667e+00 5.9900000e+00 0.0000000e+00 
5.5000000e+00 6.0100000e+00 0.0000000e+00 
5.5266667e+00 6.0100000e+00 0.0000000e+00 
5.5533333e+00 5.9700000e+00 0.0000000e+00 
5.5533333e+00 5.9900000e+00 0.0000000e+00 
5.5000000e+00 6.0300000e+00 0.0000000e+00 
5.5266667e+00 6.0300000e+00 0.0000000e+00 
5.5533333e+00 6.0100000e+00 0.0000000e+00 
5.5800000e+00 5.9700000e+00 0.0000000e+00 
5.5533333e+00 6.0300000e+00 0.0000000e+00 
5.5800000e+00 5.9900000e+00 0.0000000e+00 
5.5800000e+00 6.0100000e+00 0.0000000e+00 
5.5800000e+00 6.0300000e+00 0.0000000e+00 
5.6066667e+00 5.9700000e+00 0.0000000e+00 
5.6066667e+00 5.9900000e+00 0.0000000e+00 
5.6066667e+00 6.0100000e+00 0.0000000e+00 
5.6066667e+00 6.0300000e+00 0.0000000e+00 
5.6333333e+00 5.9700000e+00 0.0000000e+00 
5.6333333e+00 5.9900000e+00 0.0000000e+00 
5.6333333e+00 6.0100000e+00 0.0000000e+00 
5.6333333e+00 6.0300000e+00 0.0000000e+00 
5.6600000e+00 5.9700000e+00 0.0000000e+00 
5.6600000e+00 5.9900000e+00 0.0000000e+00 
5.6600000e+00 6.0100000e+00 0.0000000e+00 
5.6600000e+00 6.0300000e+00 0.0000000e+00 
5.6866667e+00 5.9700000e+00 0.0000000e+00 
5.6866667e+00 5.9900000e+00 0.0000000e+00 
5.6866667e+00 6.0100000e+00 0.0000000e+00 
5.6866667e+00 6.0300000e+00 0.0000000e+00 
5.7133333e+00 5.9700000e+00 0.0000000e+00 
5.7133333e+00 5.9900000e+00 0.0000000e+00 
5.7133333e+00 6.0100000e+00 0.0000000e+00 
5.7133333e+00 6.0300000e+00 0.0000000e+00 
5.7400000e+00 5.9700000e+00 0.0000000e+00 
5.7400000e+00 5.9900000e+00 0.0000000e+00 
5.7400000e+00 6.0100000e+00 0.0000000e+00 
5.7400000e+00 6.0300000e+00 0.0000000e+00 
5.7666667e+00 5.9700000e+00 0.0000000e+00 
5.7666667e+00 5.9900000e+00 0.0000000e+00 
5.7666667e+00 6.0100000e+00 0.0000000e+00 
5.7666667e+00 6.0300000e+00 0.0000000e+00 
5.7933333e+00 5.9700000e+00 0.0000000e+00 
5.7933333e+00 5.9900000e+00 0.0000000e+00 
5.7933333e+00 6.0100000e+00 0.0000000e+00 
5.7933333e+00 6.0300000e+00 0.0000000e+00 
5.8200000e+00 5.9700000e+00 0.0000000e+00 
5.8200000e+00 5.9900000e+00 0.0000000e+00 
5.8200000e+00 6.0100000e+00 0.0000000e+00 
5.8200000e+00 6.0300000e+00 0.0000000e+00 
5.8466667e+00 5.9700000e+00 0.0000000e+00 
5.8466667e+00 5.9900000e+00 0.0000000e+00 
5.8466667e+00 6.0100000e+00 0.0000000e+00 
5.8466667e+00 6.0300000e+00 0.0000000e+00 
5.8733333e+00 5.9700000e+00 0.0000000e+00 
5.8733333e+00 5.9900000e+00 0.0000000e+00 
5.8733333e+00 6.0100000e+00 0.0000000e+00 
5.8733333e+00 6.0300000e+00 0.0000000e+00 
5.9000000e+00 5.9700000e+00 0.0000000e+00 
5.9000000e+00 5.9900000e+00 0.0000000e+00 
5.9000000e+00 6.0100000e+00 0.0000000e+00 
5.9000000e+00 6.0300000e+00 0.0000000e+00 
5.9266667e+00 5.9700000e+00 0.0000000e+00 
5.9266667e+00 5.9900000e+00 0.0000000e+00 
5.9266667e+00 6.0100000e+00 0.0000000e+00 
5.9266667e+00 6.0300000e+00 0.0000000e+00 
5.9533333e+00 5.9700000e+00 0.0000000e+00 
5.9533333e+00 5.9900000e+00 0.0000000e+00 
5.9533333e+00 6.0100000e+00 0.0000000e+00 
5.9533333e+00 6.0300000e+00 0.0000000e+00 
5.9800000e+00 5.9700000e+00 0.0000000e+00 
5.9800000e+00 5.9900000e+00 0.0000000e+00 
5.9800000e+00 6.0100000e+00 0.0000000e+00 
5.9800000e+00 6.0300000e+00 0.0000000e+00 
6.0066667e+00 5.9700000e+00 0.0000000e+00 
6.0066667e+00 5.9900000e+00 0.0000000e+00 
6.0066667e+00 6.0100000e+00 0.0000000e+00 
6.0066667e+00 6.0300000e+00 0.0000000e+00 
6.0333333e+00 5.9700000e+00 0.0000000e+00 
6.0333333e+00 5.9900000e+00 0.0000000e+00 
6.0333333e+00 6.0100000e+00 0.0000000e+00 
6.0333333e+00 6.0300000e+00 0.0000000e+00 
6.0600000e+00 5.9700000e+00 0.0000000e+00 
6.0600000e+00 5.9900000e+00 0.0000000e+00 
6.0600000e+00 6.0100000e+00 0.0000000e+00 
6.0600000e+00 6.0300000e+00 0.0000000e+00 
6.0866667e+00 5.9700000e+00 0.0000000e+00 
6.0866667e+00 5.9900000e+00 0.0000000e+00 
6.0866667e+00 6.0100000e+00 0.0000000e+00 
6.0866667e+00 6.0300000e+00 0.0000000e+00 
6.1133333e+00 5.9700000e+00 0.0000000e+00 
6.1133333e+00 5.9900000e+00 0.0000000e+00 
6.1133333e+00 6.0100000e+00 0.0000000e+00 
6.1133333e+00 6.0300000e+00 0.0000000e+00 
6.1400000e+00 5.9700000e+00 0.0000000e+00 
6.1400000e+00 5.9900000e+00 0.0000000e+00 
6.1400000e+00 6.0100000e+00 0.0000000e+00 
6.1400000e+00 6.0300000e+00 0.0000000e+00 
6.1666667e+00 5.9700000e+00 0.0000000e+00 
6.1666667e+00 5.9900000e+00 0.0000000e+00 
6.1666667e+00 6.0100000e+00 0.0000000e+00 
6.1666667e+00 6.0300000e+00 0.0000000e+00 
6.1933333e+00 5.9700000e+00 0.0000000e+00 
6.1933333e+00 5.9900000e+00 0.0000000e+00 
6.1933333e+00 6.0100000e+00 0.0000000e+00 
6.1933333e+00 6.0300000e+00 0.0000000e+00 
6.2200000e+00 5.9700000e+00 0.0000000e+00 
6.2200000e+00 5.9900000e+00 0.0000000e+00 
6.2200000e+00 6.0100000e+00 0.0000000e+00 
6.2200000e+00 6.0300000e+00 0.0000000e+00 
6.2466667e+00 5.9700000e+00 0.0000000e+00 
6.2466667e+00 5.9900000e+00 0.0000000e+00 
6.2466667e+00 6.0100000e+00 0.0000000e+00 
6.2466667e+00 6.0300000e+00 0.0000000e+00 
6.2733333e+00 5.9700000e+00 0.0000000e+00 
6.2733333e+00 5.9900000e+00 0.0000000e+00 
6.2733333e+00 6.0100000e+00 0.0000000e+00 
6.2733333e+00 6.0300000e+00 0.0000000e+00 
6.3000000e+00 5.9700000e+00 0.0000000e+00 
6.3000000e+00 5.9900000e+00 0.0000000e+00 
6.3000000e+00 6.0100000e+00 0.0000000e+00 
6.3000000e+00 6.0300000e+00 0.0000000e+00 
6.3266667e+00 5.9700000e+00 0.0000000e+00 
6.3266667e+00 5.9900000e+00 0.0000000e+00 
6.3266667e+00 6.0100000e+00 0.0000000e+00 
6.3266667e+00 6.0300000e+00 0.0000000e+00 
6.3533333e+00 5.9700000e+00 0.0000000e+00 
6.3533333e+00 5.9900000e+00 0.0000000e+00 
6.3533333e+00 6.0100000e+00 0.0000000e+00 
6.3533333e+00 6.0300000e+00 0.0000000e+00 
6.3800000e+00 5.9700000e+00 0.0000000e+00 
6.3800000e+00 5.9900000e+00 0.0000000e+00 
6.3800000e+00 6.0100000e+00 0.0000000e+00 
6.3800000e+00 6.0300000e+00 0.0000000e+00 
6.4066667e+00 5.9700000e+00 0.0000000e+00 
6.4066667e+00 5.9900000e+00 0.0000000e+00 
6.4066667e+00 6.0100000e+00 0.0000000e+00 
6.4066667e+00 6.0300000e+00 0.0000000e+00 
6.4333333e+00 5.9700000e+00 0.0000000e+00 
6.4333333e+00 5.9900000e+00 0.0000000e+00 
6.4333333e+00 6.0100000e+00 0.0000000e+00 
6.4333333e+00 6.0300000e+00 0.0000000e+00 
6.4600000e+00 5.9700000e+00 0.0000000e+00 
6.4600000e+00 5.9900000e+00 0.0000000e+00 
6.4600000e+00 6.0100000e+00 0.0000000e+00 
6.4600000e+00 6.0300000e+00 0.0000000e+00 
6.4866667e+00 5.9700000e+00 0.0000000e+00 
6.4866667e+00 5.9900000e+00 0.0000000e+00 
6.4866667e+00 6.0100000e+00 0.0000000e+00 
6.4866667e+00 6.0300000e+00 0.0000000e+00 
6.5133333e+00 5.9700000e+00 0.0000000e+00 
6.5133333e+00 5.9900000e+00 0.0000000e+00 
6.5133333e+00 6.0100000e+00 0.0000000e+00 
6.5133333e+00 6.0300000e+00 0.0000000e+00 
6.5400000e+00 5.9700000e+00 0.0000000e+00 
6.5400000e+00 5.9900000e+00 0.0000000e+00 
6.5400000e+00 6.0100000e+00 0.0000000e+00 
6.5400000e+00 6.0300000e+00 0.0000000e+00 
6.5666667e+00 5.9700000e+00 0.0000000e+00 
6.5666667e+00 5.9900000e+00 0.0000000e+00 
6.5666667e+00 6.0100000e+00 0.0000000e+00 
6.5666667e+00 6.0300000e+00 0.0000000e+00 
6.5933333e+00 5.9700000e+00 0.0000000e+00 
6.5933333e+00 5.9900000e+00 0.0000000e+00 
6.5933333e+00 6.0100000e+00 0.0000000e+00 
6.5933333e+00 6.0300000e+00 0.0000000e+00 
6.6200000e+00 5.9700000e+00 0.0000000e+00 
6.6200000e+00 5.9900000e+00 0.0000000e+00 
6.6200000e+00 6.0100000e+00 0.0000000e+00 
6.6200000e+00 6.0300000e+00 0.0000000e+00 
6.6466667e+00 5.9700000e+00 0.0000000e+00 
6.6466667e+00 5.9900000e+00 0.0000000e+00 
6.6466667e+00 6.0100000e+00 0.0000000e+00 
6.6466667e+00 6.0300000e+00 0.0000000e+00 
6.6733333e+00 5.9700000e+00 0.0000000e+00 
6.6733333e+00 5.9900000e+00 0.0000000e+00 
6.6733333e+00 6.0100000e+00 0.0000000e+00 
6.6733333e+00 6.0300000e+00 0.0000000e+00 
6.7000000e+00 5.9700000e+00 0.0000000e+00 
6.7000000e+00 5.9900000e+00 0.0000000e+00 
6.7000000e+00 6.0100000e+00 0.0000000e+00 
6.7000000e+00 6.0300000e+00 0.0000000e+00 
6.7266667e+00 5.9700000e+00 0.0000000e+00 
6.7266667e+00 5.9900000e+00 0.0000000e+00 
6.7266667e+00 6.0100000e+00 0.0000000e+00 
6.7266667e+00 6.0300000e+00 0.0000000e+00 
6.7533333e+00 5.9700000e+00 0.0000000e+00 
6.7533333e+00 5.9900000e+00 0.0000000e+00 
6.7533333e+00 6.0100000e+00 0.0000000e+00 
6.7533333e+00 6.0300000e+00 0.0000000e+00 
6.7800000e+00 5.9700000e+00 0.0000000e+00 
6.7800000e+00 5.9900000e+00 0.0000000e+00 
6.7800000e+00 6.0100000e+00 0.0000000e+00 
6.7800000e+00 6.0300000e+00 0.0000000e+00 
6.8066667e+00 5.9700000e+00 0.0000000e+00 
6.8066667e+00 5.9900000e+00 0.0000000e+00 
6.8066667e+00 6.0100000e+00 0.0000000e+00 
6.8066667e+00 6.0300000e+00 0.0000000e+00 
6.8333333e+00 5.9700000e+00 0.0000000e+00 
6.8333333e+00 5.9900000e+00 0.0000000e+00 
6.8333333e+00 6.0100000e+00 0.0000000e+00 
6.8333333e+00 6.0300000e+00 0.0000000e+00 
6.8600000e+00 5.9700000e+00 0.0000000e+00 
6.8600000e+00 5.9900000e+00 0.0000000e+00 
6.8600000e+00 6.0100000e+00 0.0000000e+00 
6.8600000e+00 6.0300000e+00 0.0000000e+00 
6.8866667e+00 5.9700000e+00 0.0000000e+00 
6.8866667e+00 5.9900000e+00 0.0000000e+00 
6.8866667e+00 6.0100000e+00 0.0000000e+00 
6.8866667e+00 6.0300000e+00 0.0000000e+00 
6.9133333e+00 5.9700000e+00 0.0000000e+00 
6.9133333e+00 5.9900000e+00 0.0000000e+00 
6.9133333e+00 6.0100000e+00 0.0000000e+00 
6.9133333e+00 6.0300000e+00 0.0000000e+00 
6.9400000e+00 5.9700000e+00 0.0000000e+00 
6.9400000e+00 5.9900000e+00 0.0000000e+00 
6.9400000e+00 6.0100000e+00 0.0000000e+00 
6.9400000e+00 6.0300000e+00 0.0000000e+00 
6.9666667e+00 5.9700000e+00 0.0000000e+00 
6.9666667e+00 5.9900000e+00 0.0000000e+00 
6.9666667e+00 6.0100000e+00 0.0000000e+00 
6.9666667e+00 6.0300000e+00 0.0000000e+00 
6.9933333e+00 5.9700000e+00 0.0000000e+00 
6.9933333e+00 5.9900000e+00 0.0000000e+00 
6.9933333e+00 6.0100000e+00 0.0000000e+00 
6.9933333e+00 6.0300000e+00 0.0000000e+00 
7.0200000e+00 5.9700000e+00 0.0000000e+00 
7.0200000e+00 5.9900000e+00 0.0000000e+00 
[...]
POINT_DATA 604
FIELD FieldData 2
DISPLACEMENT 3 604  float
0.0000000e+00 0.0000000e+00 0.0000000e+00 
0.0000000e+00 0.0000000e+00 0.0000000e+00 
9.4593000e-05 5.7099947e-05 0.0000000e+00 
3.0362328e-05 3.6881746e-05 0.0000000e+00 
0.0000000e+00 0.0000000e+00 0.0000000e+00 
-2.9882207e-05 3.6758745e-05 0.0000000e+00 
1.9088005e-04 1.8211656e-04 0.0000000e+00 
6.3589827e-05 1.6626394e-04 0.0000000e+00 
0.0000000e+00 0.0000000e+00 0.0000000e+00 
-9.4698943e-05 5.6357936e-05 0.0000000e+00 
-6.3908761e-05 1.6651471e-04 0.0000000e+00 
2.8546628e-04 3.9830139e-04 0.0000000e+00 
-1.9148102e-04 1.8361062e-04 0.0000000e+00 
9.4305575e-05 3.8046574e-04 0.0000000e+00 
-9.6393610e-05 3.7964899e-04 0.0000000e+00 
-2.8785328e-04 3.9506196e-04 0.0000000e+00 
3.7797472e-04 6.9564456e-04 0.0000000e+00 
1.2406280e-04 6.7867836e-04 0.0000000e+00 
-1.2949964e-04 6.7765999e-04 0.0000000e+00 
-3.8378794e-04 6.9347026e-04 0.0000000e+00 
4.6810171e-04 1.0796007e-03 0.0000000e+00 
1.5235262e-04 1.0606599e-03 0.0000000e+00 
-1.6319540e-04 1.0581851e-03 0.0000000e+00 
-4.7958078e-04 1.0715672e-03 0.0000000e+00 
5.5572022e-04 1.5427286e-03 0.0000000e+00 
1.7898836e-04 1.5241598e-03 0.0000000e+00 
-1.9777066e-04 1.5214258e-03 0.0000000e+00 
-5.7559983e-04 1.5347869e-03 0.0000000e+00 
6.4082065e-04 2.0887516e-03 0.0000000e+00 
2.0319558e-04 2.0691588e-03 0.0000000e+00 
-2.3398744e-04 2.0651957e-03 0.0000000e+00 
-6.7173395e-04 2.0771470e-03 0.0000000e+00 
7.2271235e-04 2.7166470e-03 0.0000000e+00 
2.2574491e-04 2.6946340e-03 0.0000000e+00 
-2.7107159e-04 2.6884957e-03 0.0000000e+00 
-7.6869984e-04 2.6975930e-03 0.0000000e+00 
8.0173472e-04 3.4205533e-03 0.0000000e+00 
2.4590046e-04 3.3985255e-03 0.0000000e+00 
-3.0982403e-04 3.3914291e-03 0.0000000e+00 
-8.6646807e-04 3.4001444e-03 0.0000000e+00 
8.7732353e-04 4.2059114e-03 0.0000000e+00 
2.6346881e-04 4.1810261e-03 0.0000000e+00 
-3.5039450e-04 4.1717319e-03 0.0000000e+00 
-9.6518908e-04 4.1771678e-03 0.0000000e+00 
9.4960577e-04 5.0652670e-03 0.0000000e+00 
2.7828062e-04 5.0401168e-03 0.0000000e+00 
-3.9300085e-04 5.0294976e-03 0.0000000e+00 
-1.0652550e-03 5.0343106e-03 0.0000000e+00 
1.0180073e-03 6.0041362e-03 0.0000000e+00 
2.9015515e-04 5.9758100e-03 0.0000000e+00 
-4.3778942e-04 5.9627015e-03 0.0000000e+00 
-1.1667202e-03 5.9639288e-03 0.0000000e+00 
1.0827913e-03 7.0149682e-03 0.0000000e+00 
2.9891014e-04 6.9861268e-03 0.0000000e+00 
-4.8499608e-04 6.9714301e-03 0.0000000e+00 
-1.2699346e-03 6.9717859e-03 0.0000000e+00 
1.1433272e-03 8.1034185e-03 0.0000000e+00 
3.0437637e-04 8.0711174e-03 0.0000000e+00 
-5.3474415e-04 8.0536664e-03 0.0000000e+00 
-1.3749058e-03 8.0501645e-03 0.0000000e+00 
1.1999521e-03 9.2618432e-03 0.0000000e+00 
3.0638996e-04 9.2288004e-03 0.0000000e+00 
-5.8725890e-04 9.2095218e-03 0.0000000e+00 
-1.4819978e-03 9.2049202e-03 0.0000000e+00 
1.2519880e-03 1.0496021e-02 0.0000000e+00 
3.0479279e-04 1.0459258e-02 0.0000000e+00 
-6.4263965e-04 1.0436982e-02 0.0000000e+00 
-1.5911660e-03 1.0428272e-02 0.0000000e+00 
1.2998398e-03 1.1798206e-02 0.0000000e+00 
2.9943932e-04 1.1760498e-02 0.0000000e+00 
-7.0110200e-04 1.1736178e-02 0.0000000e+00 
-1.7027895e-03 1.1726161e-02 0.0000000e+00 
1.3427901e-03 1.3174293e-02 0.0000000e+00 
2.9017911e-04 1.3132630e-02 0.0000000e+00 
-7.6272336e-04 1.3105090e-02 0.0000000e+00 
-1.8167672e-03 1.3090739e-02 0.0000000e+00 
1.3813065e-03 1.4616448e-02 0.0000000e+00 
2.7688849e-04 1.4573644e-02 0.0000000e+00 
-8.2770658e-04 1.4543861e-02 0.0000000e+00 
-1.9334915e-03 1.4527998e-02 0.0000000e+00 
1.4145777e-03 1.6130641e-02 0.0000000e+00 
2.5945406e-04 1.6083712e-02 0.0000000e+00 
-8.9607145e-04 1.6050420e-02 0.0000000e+00 
-2.0528667e-03 1.6030049e-02 0.0000000e+00 
1.4430697e-03 1.7708885e-02 0.0000000e+00 
2.3781136e-04 1.7660541e-02 0.0000000e+00 
-9.6802384e-04 1.7625167e-02 0.0000000e+00 
-2.1753544e-03 1.7602985e-02 0.0000000e+00 
1.4665829e-03 1.9355603e-02 0.0000000e+00 
2.1120063e-04 1.9304379e-02 0.0000000e+00 
-1.0441867e-03 1.9265949e-02 0.0000000e+00 
-2.3005301e-03 1.9240582e-02 0.0000000e+00 
1.4844692e-03 2.1069878e-02 0.0000000e+00 
1.8060763e-04 2.1014345e-02 0.0000000e+00 
-1.1235736e-03 2.0971928e-02 0.0000000e+00 
-2.4289711e-03 2.0941865e-02 0.0000000e+00 
1.4974444e-03 2.2845290e-02 0.0000000e+00 
1.4538221e-04 2.2788257e-02 0.0000000e+00 
-1.2069484e-03 2.2743291e-02 0.0000000e+00 
-2.5606311e-03 2.2711300e-02 0.0000000e+00 
1.5046353e-03 2.4688095e-02 0.0000000e+00 
1.0538915e-04 2.4626480e-02 0.0000000e+00 
-1.2942687e-03 2.4577699e-02 0.0000000e+00 
-2.6952481e-03 2.4540754e-02 0.0000000e+00 
1.5066222e-03 2.6590008e-02 0.0000000e+00 
6.0611228e-05 2.6526823e-02 0.0000000e+00 
-1.3856681e-03 2.6475290e-02 0.0000000e+00 
-2.8333414e-03 2.6436334e-02 0.0000000e+00 
1.5025628e-03 2.8557289e-02 0.0000000e+00 
1.0929501e-05 2.8489392e-02 0.0000000e+00 
-1.4811202e-03 2.8433930e-02 0.0000000e+00 
-2.9745337e-03 2.8389884e-02 0.0000000e+00 
1.4931388e-03 3.0581523e-02 0.0000000e+00 
-4.3682085e-05 3.0511984e-02 0.0000000e+00 
-1.5807722e-03 3.0453676e-02 0.0000000e+00 
-3.1193053e-03 3.0407521e-02 0.0000000e+00 
1.4774890e-03 3.2669005e-02 0.0000000e+00 
-1.0333692e-04 3.2594671e-02 0.0000000e+00 
-1.6845761e-03 3.2532350e-02 0.0000000e+00 
-3.2672215e-03 3.2481009e-02 0.0000000e+00 
1.4563336e-03 3.4811219e-02 0.0000000e+00 
-1.6803423e-04 3.4735193e-02 0.0000000e+00 
-1.7926625e-03 3.4669961e-02 0.0000000e+00 
-3.4187792e-03 3.4616434e-02 0.0000000e+00 
1.4288028e-03 3.7014456e-02 0.0000000e+00 
-2.3787873e-04 3.6933582e-02 0.0000000e+00 
-1.9049596e-03 3.6864280e-02 0.0000000e+00 
-3.5734850e-03 3.6805503e-02 0.0000000e+00 
1.3956539e-03 3.9270104e-02 0.0000000e+00 
-3.1284268e-04 3.9187516e-02 0.0000000e+00 
-2.0215812e-03 3.9115264e-02 0.0000000e+00 
-3.7318493e-03 3.9054248e-02 0.0000000e+00 
1.3560164e-03 4.1584427e-02 0.0000000e+00 
-3.9302264e-04 4.1496975e-02 0.0000000e+00 
-2.1424332e-03 4.1420626e-02 0.0000000e+00 
-3.8933187e-03 4.1354328e-02 0.0000000e+00 
1.3106836e-03 4.3948754e-02 0.0000000e+00 
-4.7836087e-04 4.3859575e-02 0.0000000e+00 
-2.2676091e-03 4.3780263e-02 0.0000000e+00 
-4.0584108e-03 4.3711684e-02 0.0000000e+00 
1.2587287e-03 4.6369269e-02 0.0000000e+00 
-5.6891455e-04 4.6275285e-02 0.0000000e+00 
-2.3969524e-03 4.6191790e-02 0.0000000e+00 
-4.2265790e-03 4.6117954e-02 0.0000000e+00 
1.2009124e-03 4.8837180e-02 0.0000000e+00 
-6.6454013e-04 4.8741390e-02 0.0000000e+00 
-2.5305639e-03 4.8655286e-02 0.0000000e+00 
-4.3984065e-03 4.8579040e-02 0.0000000e+00 
1.1370515e-03 5.1356944e-02 0.0000000e+00 
-7.6595840e-04 5.1257858e-02 0.0000000e+00 
-2.6688890e-03 5.1168256e-02 0.0000000e+00 
-4.5731014e-03 5.1088305e-02 0.0000000e+00 
1.0665812e-03 5.3927184e-02 0.0000000e+00 
-8.7201569e-04 5.3823492e-02 0.0000000e+00 
-2.8107780e-03 5.3729537e-02 0.0000000e+00 
-4.7510503e-03 5.3644464e-02 0.0000000e+00 
9.9038224e-04 5.6540859e-02 0.0000000e+00 
-9.8319378e-04 5.6435567e-02 0.0000000e+00 
-2.9568631e-03 5.6338839e-02 0.0000000e+00 
-4.9322026e-03 5.6251488e-02 0.0000000e+00 
9.0759931e-04 5.9203948e-02 0.0000000e+00 
-1.0995679e-03 5.9094027e-02 0.0000000e+00 
-3.1069141e-03 5.8993369e-02 0.0000000e+00 
-5.1158412e-03 5.8900884e-02 0.0000000e+00 
8.1903116e-04 6.1907533e-02 0.0000000e+00 
-1.2209346e-03 6.1796154e-02 0.0000000e+00 
-3.2609180e-03 6.1692740e-02 0.0000000e+00 
-5.3025754e-03 6.1598099e-02 0.0000000e+00 
7.2390230e-04 6.4657418e-02 0.0000000e+00 
-1.3473322e-03 6.4541554e-02 0.0000000e+00 
-3.4186672e-03 6.4434340e-02 0.0000000e+00 
-5.4915838e-03 6.4334677e-02 0.0000000e+00 
6.2308724e-04 6.7444658e-02 0.0000000e+00 
-1.4785609e-03 6.7327480e-02 0.0000000e+00 
-3.5801539e-03 6.7217647e-02 0.0000000e+00 
-5.6834244e-03 6.7115942e-02 0.0000000e+00 
5.1584186e-04 7.0274915e-02 0.0000000e+00 
-1.6146452e-03 7.0153448e-02 0.0000000e+00 
-3.7451498e-03 7.0039984e-02 0.0000000e+00 
-5.8772295e-03 6.9933422e-02 0.0000000e+00 
4.0305013e-04 7.3139258e-02 0.0000000e+00 
-1.7553537e-03 7.3016650e-02 0.0000000e+00 
-3.9136232e-03 7.2900738e-02 0.0000000e+00 
-6.0735627e-03 7.2792279e-02 0.0000000e+00 
2.8400828e-04 7.6043175e-02 0.0000000e+00 
-1.9006940e-03 7.5916510e-02 0.0000000e+00 
-4.0853242e-03 7.5797172e-02 0.0000000e+00 
-6.2715121e-03 7.5684058e-02 0.0000000e+00 
1.5960774e-04 7.8977772e-02 0.0000000e+00 
-2.0504056e-03 7.8850167e-02 0.0000000e+00 
-4.2601994e-03 7.8728585e-02 0.0000000e+00 
-6.4716448e-03 7.8613751e-02 0.0000000e+00 
2.9190193e-05 8.1948350e-02 0.0000000e+00 
-2.2044801e-03 8.1816956e-02 0.0000000e+00 
-4.4379805e-03 8.1692183e-02 0.0000000e+00 
-6.6730070e-03 8.1572935e-02 0.0000000e+00 
-1.0634733e-04 8.4946088e-02 0.0000000e+00 
-2.3626285e-03 8.4813970e-02 0.0000000e+00 
-4.6185909e-03 8.4687185e-02 0.0000000e+00 
-6.8761643e-03 8.4566412e-02 0.0000000e+00 
-2.4766991e-04 8.7976073e-02 0.0000000e+00 
-2.5248009e-03 8.7840503e-02 0.0000000e+00 
-4.8017107e-03 8.7710713e-02 0.0000000e+00 
-7.0801838e-03 8.7585819e-02 0.0000000e+00 
-3.9393744e-04 9.1029508e-02 0.0000000e+00 
-2.6906259e-03 9.0893379e-02 0.0000000e+00 
-4.9872711e-03 9.0762129e-02 0.0000000e+00 
-7.2856833e-03 9.0635827e-02 0.0000000e+00 
-5.4510398e-04 9.4109827e-02 0.0000000e+00 
-2.8606270e-03 9.3971850e-02 0.0000000e+00 
-5.1754955e-03 9.3838480e-02 0.0000000e+00 
-7.4916121e-03 9.3709724e-02 0.0000000e+00 
-7.0149266e-04 9.7215018e-02 0.0000000e+00 
-3.0336012e-03 9.7074194e-02 0.0000000e+00 
-5.3651873e-03 9.6938045e-02 0.0000000e+00 
-7.6981648e-03 9.6805700e-02 0.0000000e+00 
-8.6221715e-04 1.0033813e-01 0.0000000e+00 
-3.2097681e-03 1.0019724e-01 0.0000000e+00 
-5.5567598e-03 1.0005985e-01 0.0000000e+00 
-7.9052895e-03 9.9926566e-02 0.0000000e+00 
-1.0277829e-03 1.0348372e-01 0.0000000e+00 
-3.3890887e-03 1.0334022e-01 0.0000000e+00 
-5.7498393e-03 1.0320070e-01 0.0000000e+00 
-8.1119671e-03 1.0306408e-01 0.0000000e+00 
-1.1973884e-03 1.0664327e-01 0.0000000e+00 
-3.5711582e-03 1.0650006e-01 0.0000000e+00 
-5.9442582e-03 1.0635955e-01 0.0000000e+00 
-8.3188184e-03 1.0622234e-01 0.0000000e+00 
-1.3714420e-03 1.0982112e-01 0.0000000e+00 
-3.7558943e-03 1.0967569e-01 0.0000000e+00 
-6.1396814e-03 1.0953340e-01 0.0000000e+00 
-8.5247641e-03 1.0939321e-01 0.0000000e+00 
-1.5490986e-03 1.1300889e-01 0.0000000e+00 
-3.9429107e-03 1.1286405e-01 0.0000000e+00 
-6.3359559e-03 1.1272113e-01 0.0000000e+00 
-8.7303800e-03 1.1258068e-01 0.0000000e+00 
-1.7307193e-03 1.1621070e-01 0.0000000e+00 
-4.1321156e-03 1.1606404e-01 0.0000000e+00 
-6.5327445e-03 1.1591972e-01 0.0000000e+00 
-8.9345790e-03 1.1577667e-01 0.0000000e+00 
-1.9154777e-03 1.1941835e-01 0.0000000e+00 
-4.3231113e-03 1.1927263e-01 0.0000000e+00 
-6.7298861e-03 1.1912802e-01 0.0000000e+00 
-9.1379478e-03 1.1898506e-01 0.0000000e+00 
-2.1036863e-03 1.2263579e-01 0.0000000e+00 
-4.5157966e-03 1.2248866e-01 0.0000000e+00 
-6.9270438e-03 1.2234304e-01 0.0000000e+00 
-9.3393962e-03 1.2219788e-01 0.0000000e+00 
-2.2945398e-03 1.2585500e-01 0.0000000e+00 
-4.7097683e-03 1.2570915e-01 0.0000000e+00 
-7.1240532e-03 1.2556360e-01 0.0000000e+00 
-9.5395232e-03 1.2541889e-01 0.0000000e+00 
-2.4883045e-03 1.2907977e-01 0.0000000e+00 
-4.9049201e-03 1.2893291e-01 0.0000000e+00 
-7.3205830e-03 1.2878673e-01 0.0000000e+00 
-9.7372391e-03 1.2864022e-01 0.0000000e+00 
-2.6841984e-03 1.3230227e-01 0.0000000e+00 
-5.1008469e-03 1.3215701e-01 0.0000000e+00 
-7.5164671e-03 1.3201127e-01 0.0000000e+00 
-9.9331543e-03 1.3186555e-01 0.0000000e+00 
-2.8824908e-03 1.3552614e-01 0.0000000e+00 
-5.2974201e-03 1.3538031e-01 0.0000000e+00 
-7.7113569e-03 1.3523425e-01 0.0000000e+00 
-1.0126231e-02 1.3508716e-01 0.0000000e+00 
-3.0824723e-03 1.3874373e-01 0.0000000e+00 
-5.4941940e-03 1.3859974e-01 0.0000000e+00 
-7.9051086e-03 1.3845472e-01 0.0000000e+00 
-1.0317136e-02 1.3830865e-01 0.0000000e+00 
-3.2838647e-03 1.4195735e-01 0.0000000e+00 
-5.6914964e-03 1.4181420e-01 0.0000000e+00 
-8.0978614e-03 1.4166972e-01 0.0000000e+00 
-1.0504830e-02 1.4152386e-01 0.0000000e+00 
-3.4867723e-03 1.4516496e-01 0.0000000e+00 
-5.8882593e-03 1.4502190e-01 0.0000000e+00 
-8.2885550e-03 1.4487746e-01 0.0000000e+00 
-1.0689513e-02 1.4473089e-01 0.0000000e+00 
-3.6904491e-03 1.4836072e-01 0.0000000e+00 
-6.0845642e-03 1.4821999e-01 0.0000000e+00 
-8.4775180e-03 1.4807691e-01 0.0000000e+00 
-1.0871262e-02 1.4793192e-01 0.0000000e+00 
-3.8950754e-03 1.5154792e-01 0.0000000e+00 
-6.2803365e-03 1.5140755e-01 0.0000000e+00 
-8.6644224e-03 1.5126511e-01 0.0000000e+00 
-1.1049089e-02 1.5111972e-01 0.0000000e+00 
-4.1000356e-03 1.5471964e-01 0.0000000e+00 
-6.4751767e-03 1.5458189e-01 0.0000000e+00 
-8.8491062e-03 1.5444106e-01 0.0000000e+00 
-1.1223697e-02 1.5429762e-01 0.0000000e+00 
-4.3054504e-03 1.5787902e-01 0.0000000e+00 
-6.6689872e-03 1.5774195e-01 0.0000000e+00 
-9.0313087e-03 1.5760210e-01 0.0000000e+00 
-1.1394082e-02 1.5745859e-01 0.0000000e+00 
-4.5106900e-03 1.6101938e-01 0.0000000e+00 
-6.8614158e-03 1.6088519e-01 0.0000000e+00 
-9.2109020e-03 1.6074724e-01 0.0000000e+00 
-1.1560926e-02 1.6060597e-01 0.0000000e+00 
-4.7158607e-03 1.6414380e-01 0.0000000e+00 
-7.0523762e-03 1.6401060e-01 0.0000000e+00 
-9.3876534e-03 1.6387393e-01 0.0000000e+00 
-1.1723256e-02 1.6373294e-01 0.0000000e+00 
-4.9203709e-03 1.6724589e-01 0.0000000e+00 
-7.2415372e-03 1.6711579e-01 0.0000000e+00 
-9.5614499e-03 1.6698128e-01 0.0000000e+00 
-1.1881777e-02 1.6684281e-01 0.0000000e+00 
-5.1243145e-03 1.7032864e-01 0.0000000e+00 
-7.4288239e-03 1.7019981e-01 0.0000000e+00 
-9.7320871e-03 1.7006685e-01 0.0000000e+00 
-1.2035550e-02 1.6992896e-01 0.0000000e+00 
-5.3271372e-03 1.7338597e-01 0.0000000e+00 
-7.6139300e-03 1.7326042e-01 0.0000000e+00 
-9.8994695e-03 1.7312986e-01 0.0000000e+00 
-1.2185303e-02 1.7299473e-01 0.0000000e+00 
-5.5289246e-03 1.7642080e-01 0.0000000e+00 
-7.7967951e-03 1.7629677e-01 0.0000000e+00 
-1.0063424e-02 1.7616800e-01 0.0000000e+00 
-1.2330129e-02 1.7603374e-01 0.0000000e+00 
-5.7291591e-03 1.7942737e-01 0.0000000e+00 
-7.9771388e-03 1.7930676e-01 0.0000000e+00 
-1.0223873e-02 1.7918059e-01 0.0000000e+00 
-1.2470775e-02 1.7904929e-01 0.0000000e+00 
-5.9279564e-03 1.8240855e-01 0.0000000e+00 
-8.1549001e-03 1.8228968e-01 0.0000000e+00 
-1.0380655e-02 1.8216546e-01 0.0000000e+00 
-1.2606409e-02 1.8203530e-01 0.0000000e+00 
-6.1248677e-03 1.8535885e-01 0.0000000e+00 
-8.3297987e-03 1.8524346e-01 0.0000000e+00 
-1.0533721e-02 1.8512217e-01 0.0000000e+00 
-1.2737825e-02 1.8499506e-01 0.0000000e+00 
-6.3196391e-03 1.8828022e-01 0.0000000e+00 
-8.5021214e-03 1.8816748e-01 0.0000000e+00 
-1.0683319e-02 1.8804870e-01 0.0000000e+00 
-1.2864250e-02 1.8792389e-01 0.0000000e+00 
-6.5123500e-03 1.9117144e-01 0.0000000e+00 
-8.6711265e-03 1.9106073e-01 0.0000000e+00 
-1.0828717e-02 1.9094398e-01 0.0000000e+00 
-1.2986045e-02 1.9082069e-01 0.0000000e+00 
-6.7024965e-03 1.9402867e-01 0.0000000e+00 
-8.8369598e-03 1.9392155e-01 0.0000000e+00 
-1.0970303e-02 1.9380777e-01 0.0000000e+00 
-1.3103531e-02 1.9368777e-01 0.0000000e+00 
-6.8902231e-03 1.9685473e-01 0.0000000e+00 
-8.9996399e-03 1.9674966e-01 0.0000000e+00 
-1.1107982e-02 1.9663823e-01 0.0000000e+00 
-1.3215994e-02 1.9651984e-01 0.0000000e+00 
-7.0751591e-03 1.9964509e-01 0.0000000e+00 
-9.1589800e-03 1.9954363e-01 0.0000000e+00 
-1.1241733e-02 1.9943518e-01 0.0000000e+00 
-1.3324271e-02 1.9932019e-01 0.0000000e+00 
-7.2574327e-03 2.0240251e-01 0.0000000e+00 
-9.3149858e-03 2.0230317e-01 0.0000000e+00 
-1.1371532e-02 2.0219714e-01 0.0000000e+00 
-1.3427649e-02 2.0208387e-01 0.0000000e+00 
-7.4366616e-03 2.0512280e-01 0.0000000e+00 
-9.4675240e-03 2.0502704e-01 0.0000000e+00 
-1.1497390e-02 2.0492403e-01 0.0000000e+00 
-1.3526950e-02 2.0481420e-01 0.0000000e+00 
-7.6129908e-03 2.0780873e-01 0.0000000e+00 
-9.6166157e-03 2.0771511e-01 0.0000000e+00 
-1.1619316e-02 2.0761456e-01 0.0000000e+00 
-1.3621497e-02 2.0750654e-01 0.0000000e+00 
-7.7860627e-03 2.1045642e-01 0.0000000e+00 
-9.7621572e-03 2.1036634e-01 0.0000000e+00 
-1.1737337e-02 2.1026880e-01 0.0000000e+00 
-1.3712127e-02 2.1016424e-01 0.0000000e+00 
-7.9560388e-03 2.1306867e-01 0.0000000e+00 
-9.9041820e-03 2.1298072e-01 0.0000000e+00 
-1.1851493e-02 2.1288564e-01 0.0000000e+00 
-1.3798200e-02 2.1278295e-01 0.0000000e+00 
-8.1225827e-03 2.1564192e-01 0.0000000e+00 
-1.0042615e-02 2.1555741e-01 0.0000000e+00 
-1.1961825e-02 2.1546532e-01 0.0000000e+00 
-1.3880567e-02 2.1536608e-01 0.0000000e+00 
-8.2858733e-03 2.1817899e-01 0.0000000e+00 
-1.0177503e-02 2.1809658e-01 0.0000000e+00 
-1.2068400e-02 2.1800692e-01 0.0000000e+00 
-1.3958614e-02 2.1790957e-01 0.0000000e+00 
-8.4455913e-03 2.2067665e-01 0.0000000e+00 
-1.0308797e-02 2.2059757e-01 0.0000000e+00 
-1.2171273e-02 2.2051083e-01 0.0000000e+00 
-1.4033206e-02 2.2041687e-01 0.0000000e+00 
-8.6019592e-03 2.2313775e-01 0.0000000e+00 
-1.0436542e-02 2.2306070e-01 0.0000000e+00 
-1.2270523e-02 2.2297631e-01 0.0000000e+00 
-1.4103781e-02 2.2288427e-01 0.0000000e+00 
-8.7546975e-03 2.2555934e-01 0.0000000e+00 
-1.0560695e-02 2.2548544e-01 0.0000000e+00 
-1.2366222e-02 2.2540402e-01 0.0000000e+00 
-1.4171227e-02 2.2531522e-01 0.0000000e+00 
-8.9037694e-03 2.2794370e-01 0.0000000e+00 
-1.0681560e-02 2.2787227e-01 0.0000000e+00 
-1.2458735e-02 2.2779339e-01 0.0000000e+00 
-1.4235052e-02 2.2770717e-01 0.0000000e+00 
-9.0493209e-03 2.3029091e-01 0.0000000e+00 
-1.0798725e-02 2.3022140e-01 0.0000000e+00 
-1.2547664e-02 2.3014462e-01 0.0000000e+00 
-1.4295713e-02 2.3006034e-01 0.0000000e+00 
-9.1910177e-03 2.3259930e-01 0.0000000e+00 
-1.0912437e-02 2.3253270e-01 0.0000000e+00 
-1.2633422e-02 2.3245861e-01 0.0000000e+00 
-1.4353699e-02 2.3237746e-01 0.0000000e+00 
-9.3291550e-03 2.3487189e-01 0.0000000e+00 
-1.1022794e-02 2.3480702e-01 0.0000000e+00 
-1.2716122e-02 2.3473508e-01 0.0000000e+00 
-1.4408540e-02 2.3465574e-01 0.0000000e+00 
-9.4634723e-03 2.3710655e-01 0.0000000e+00 
-1.1129821e-02 2.3704441e-01 0.0000000e+00 
-1.2795839e-02 2.3697497e-01 0.0000000e+00 
-1.4461103e-02 2.3689866e-01 0.0000000e+00 
-9.5942689e-03 2.3930630e-01 0.0000000e+00 
-1.1233598e-02 2.3924575e-01 0.0000000e+00 
-1.2872731e-02 2.3917832e-01 0.0000000e+00 
-1.4510912e-02 2.3910374e-01 0.0000000e+00 
-9.7212592e-03 2.4146929e-01 0.0000000e+00 
-1.1334184e-02 2.4141127e-01 0.0000000e+00 
-1.2946887e-02 2.4134620e-01 0.0000000e+00 
-1.4558800e-02 2.4127449e-01 0.0000000e+00 
-9.8447659e-03 2.4359860e-01 0.0000000e+00 
-1.1431662e-02 2.4354200e-01 0.0000000e+00 
-1.3018477e-02 2.4347880e-01 0.0000000e+00 
-1.4604307e-02 2.4340873e-01 0.0000000e+00 
-9.9645054e-03 2.4569260e-01 0.0000000e+00 
-1.1526106e-02 2.4563833e-01 0.0000000e+00 
-1.3087591e-02 2.4557732e-01 0.0000000e+00 
-1.4648257e-02 2.4550996e-01 0.0000000e+00 
-1.0080822e-02 2.4775443e-01 0.0000000e+00 
-1.1617600e-02 2.4770141e-01 0.0000000e+00 
-1.3154408e-02 2.4764211e-01 0.0000000e+00 
-1.4690206e-02 2.4757629e-01 0.0000000e+00 
-1.0193431e-02 2.4978267e-01 0.0000000e+00 
-1.1706230e-02 2.4973178e-01 0.0000000e+00 
-1.3219016e-02 2.4967451e-01 0.0000000e+00 
-1.4730960e-02 2.4961123e-01 0.0000000e+00 
-1.0302698e-02 2.5178054e-01 0.0000000e+00 
-1.1792082e-02 2.5173073e-01 0.0000000e+00 
-1.3281600e-02 2.5167501e-01 0.0000000e+00 
-1.4770088e-02 2.5161316e-01 0.0000000e+00 
-1.0408336e-02 2.5374682e-01 0.0000000e+00 
-1.1875250e-02 2.5369892e-01 0.0000000e+00 
-1.3342243e-02 2.5364504e-01 0.0000000e+00 
-1.4808374e-02 2.5358556e-01 0.0000000e+00 
-1.0510751e-02 2.5568475e-01 0.0000000e+00 
-1.1955814e-02 2.5563777e-01 0.0000000e+00 
-1.3401125e-02 2.5558527e-01 0.0000000e+00 
-1.4845418e-02 2.5552711e-01 0.0000000e+00 
-1.0609675e-02 2.5759329e-01 0.0000000e+00 
-1.2033857e-02 2.5754799e-01 0.0000000e+00 
-1.3458334e-02 2.5749724e-01 0.0000000e+00 
-1.4881982e-02 2.5744123e-01 0.0000000e+00 
-1.0705303e-02 2.5947527e-01 0.0000000e+00 
-1.2109671e-02 2.5943113e-01 0.0000000e+00 
-1.3514197e-02 2.5938179e-01 0.0000000e+00 
-1.4917715e-02 2.5932740e-01 0.0000000e+00 
-1.0797866e-02 2.6133183e-01 0.0000000e+00 
-1.2183025e-02 2.6128838e-01 0.0000000e+00 
-1.3568509e-02 2.6124011e-01 0.0000000e+00 