# vtk DataFile Version 4.0
vtk output
ASCII
DATASET UNSTRUCTURED_GRID
POINTS 604 float
5.5000000e+00 5.9700000e+00 0.0000000e+00 
5.5000000e+00 5.9900000e+00 0.0000000e+00 
5.5266667e+00 5.9700000e+00 0.0000000e+00 
5.5266667e+00 5.9900000e+00 0.0000000e+00 
5.5000000e+00 6.0100000e+00 0.0000000e+00 
5.5266667e+00 6.0100000e+00 0.0000000e+00 
5.5533333e+00 5.9700000e+00 0.0000000e+00 
5.5533333e+00 5.9900000e+00 0.0000000e+00 
5.5000000e+00 6.0300000e+00 0.0000000e+00 
5.5266667e+00 6.0300000e+00 0.0000000e+00 
5.5533333e+00 6.0100000e+00 0.0000000e+00 
5.5800000e+00 5.9700000e+00 0.0000000e+00 
5.5533333e+00 6.0300000e+00 0.0000000e+00 
5.5800000e+00 5.9900000e+00 0.0000000e+00 
5.5800000e+00 6.0100000e+00 0.0000000e+00 
5.5800000e+00 6.0300000e+00 0.0000000e+00 
5.6066667e+00 5.9700000e+00 0.0000000e+00 
5.6066667e+00 5.9900000e+00 0.0000000e+00 
5.6066667e+00 6.0100000e+00 0.0000000e+00 
5.6066667e+00 6.0300000e+00 0.0000000e+00 
5.6333333e+00 5.9700000e+00 0.0000000e+00 
5.6333333e+00 5.9900000e+00 0.0000000e+00 
5.6333333e+00 6.0100000e+00 0.0000000e+00 
5.6333333e+00 6.0300000e+00 0.0000000e+00 
5.6600000e+00 5.9700000e+00 0.0000000e+00 
5.6600000e+00 5.9900000e+00 0.0000000e+00 
5.6600000e+00 6.0100000e+00 0.0000000e+00 
5.6600000e+00 6.0300000e+00 0.0000000e+00 
5.6866667e+00 5.9700000e+00 0.0000000e+00 
5.6866667e+00 5.9900000e+00 0.0000000e+00 
5.6866667e+00 6.0100000e+00 0.0000000e+00 
5.6866667e+00 6.0300000e+00 0.0000000e+00 
5.7133333e+00 5.9700000e+00 0.0000000e+00 
5.7133333e+00 5.9900000e+00 0.0000000e+00 
5.7133333e+00 6.0100000e+00 0.0000000e+00 
5.7133333e+00 6.0300000e+00 0.0000000e+00 
5.7400000e+00 5.9700000e+00 0.0000000e+00 
5.7400000e+00 5.9900000e+00 0.0000000e+00 
5.7400000e+00 6.0100000e+00 0.0000000e+00 
5.7400000e+00 6.0300000e+00 0.0000000e+00 
5.7666667e+00 5.9700000e+00 0.0000000e+00 
5.7666667e+00 5.9900000e+00 0.0000000e+00 
5.7666667e+00 6.0100000e+00 0.0000000e+00 
5.7666667e+00 6.0300000e+00 0.0000000e+00 
5.7933333e+00 5.9700000e+00 0.0000000e+00 
5.7933333e+00 5.9900000e+00 0.0000000e+00 
5.7933333e+00 6.0100000e+00 0.0000000e+00 
5.7933333e+00 6.0300000e+00 0.0000000e+00 
5.8200000e+00 5.9700000e+00 0.0000000e+00 
5.8200000e+00 5.9900000e+00 0.0000000e+00 
5.8200000e+00 6.0100000e+00 0.0000000e+00 
5.8200000e+00 6.0300000e+00 0.0000000e+00 
5.8466667e+00 5.9700000e+00 0.0000000e+00 
5.8466667e+00 5.9900000e+00 0.0000000e+00 
5.8466667e+00 6.0100000e+00 0.0000000e+00 
5.8466667e+00 6.0300000e+00 0.0000000e+00 
5.8733333e+00 5.9700000e+00 0.0000000e+00 
5.8733333e+00 5.9900000e+00 0.0000000e+00 
5.8733333e+00 6.0100000e+00 0.0000000e+00 
5.8733333e+00 6.0300000e+00 0.0000000e+00 
5.9000000e+00 5.9700000e+00 0.0000000e+00 
5.9000000e+00 5.9900000e+00 0.0000000e+00 
5.9000000e+00 6.0100000e+00 0.0000000e+00 
5.9000000e+00 6.0300000e+00 0.0000000e+00 
5.9266667e+00 5.9700000e+00 0.0000000e+00 
5.9266667e+00 5.9900000e+00 0.0000000e+00 
5.9266667e+00 6.0100000e+00 0.0000000e+00 
5.9266667e+00 6.0300000e+00 0.0000000e+00 
5.9533333e+00 5.9700000e+00 0.0000000e+00 
5.9533333e+00 5.9900000e+00 0.0000000e+00 
5.9533333e+00 6.0100000e+00 0.0000000e+00 
5.9533333e+00 6.0300000e+00 0.0000000e+00 
5.9800000e+00 5.9700000e+00 0.0000000e+00 
5.9800000e+00 5.9900000e+00 0.0000000e+00 
5.9800000e+00 6.0100000e+00 0.0000000e+00 
5.9800000e+00 6.0300000e+00 0.0000000e+00 
6.0066667e+00 5.9700000e+00 0.0000000e+00 
6.0066667e+00 5.9900000e+00 0.0000000e+00 
6.0066667e+00 6.0100000e+00 0.0000000e+00 
6.0066667e+00 6.0300000e+00 0.0000000e+00 
6.0333333e+00 5.9700000e+00 0.0000000e+00 
6.0333333e+00 5.9900000e+00 0.0000000e+00 
6.0333333e+00 6.0100000e+00 0.0000000e+00 
6.0333333e+00 6.0300000e+00 0.0000000e+00 
6.0600000e+00 5.9700000e+00 0.0000000e+00 
6.0600000e+00 5.9900000e+00 0.0000000e+00 
6.0600000e+00 6.0100000e+00 0.0000000e+00 
6.0600000e+00 6.0300000e+00 0.0000000e+00 
6.0866667e+00 5.9700000e+00 0.0000000e+00 
6.0866667e+00 5.9900000e+00 0.0000000e+00 
6.0866667e+00 6.0100000e+00 0.0000000e+00 
6.0866667e+00 6.0300000e+00 0.0000000e+00 
6.1133333e+00 5.9700000e+00 0.0000000e+00 
6.1133333e+00 5.9900000e+00 0.0000000e+00 
6.1133333e+00 6.0100000e+00 0.0000000e+00 
6.1133333e+00 6.0300000e+00 0.0000000e+00 
6.1400000e+00 5.9700000e+00 0.0000000e+00 
6.1400000e+00 5.9900000e+00 0.0000000e+00 
6.1400000e+00 6.0100000e+00 0.0000000e+00 
6.1400000e+00 6.0300000e+00 0.0000000e+00 
6.1666667e+00 5.9700000e+00 0.0000000e+00 
6.1666667e+00 5.9900000e+00 0.0000000e+00 
6.1666667e+00 6.0100000e+00 0.0000000e+00 
6.1666667e+00 6.0300000e+00 0.0000000e+00 
6.1933333e+00 5.9700000e+00 0.0000000e+00 
6.1933333e+00 5.9900000e+00 0.0000000e+00 
6.1933333e+00 6.0100000e+00 0.0000000e+00 
6.1933333e+00 6.0300000e+00 0.0000000e+00 
6.2200000e+00 5.9700000e+00 0.0000000e+00 
6.2200000e+00 5.9900000e+00 0.0000000e+00 
6.2200000e+00 6.0100000e+00 0.0000000e+00 
6.2200000e+00 6.0300000e+00 0.0000000e+00 
6.2466667e+00 5.9700000e+00 0.0000000e+00 
6.2466667e+00 5.9900000e+00 0.0000000e+00 
6.2466667e+00 6.0100000e+00 0.0000000e+00 
6.2466667e+00 6.0300000e+00 0.0000000e+00 
6.2733333e+00 5.9700000e+00 0.0000000e+00 
6.2733333e+00 5.9900000e+00 0.0000000e+00 
6.2733333e+00 6.0100000e+00 0.0000000e+00 
6.2733333e+00 6.0300000e+00 0.0000000e+00 
6.3000000e+00 5.9700000e+00 0.0000000e+00 
6.3000000e+00 5.9900000e+00 0.0000000e+00 
6.3000000e+00 6.0100000e+00 0.0000000e+00 
6.3000000e+00 6.0300000e+00 0.0000000e+00 
6.3266667e+00 5.9700000e+00 0.0000000e+00 
6.3266667e+00 5.9900000e+00 0.0000000e+00 
6.3266667e+00 6.0100000e+00 0.0000000e+00 
6.3266667e+00 6.0300000e+00 0.0000000e+00 
6.3533333e+00 5.9700000e+00 0.0000000e+00 
6.3533333e+00 5.9900000e+00 0.0000000e+00 
6.3533333e+00 6.0100000e+00 0.0000000e+00 
6.3533333e+00 6.0300000e+00 0.0000000e+00 
6.3800000e+00 5.9700000e+00 0.0000000e+00 
6.3800000e+00 5.9900000e+00 0.0000000e+00 
6.3800000e+00 6.0100000e+00 0.0000000e+00 
6.3800000e+00 6.0300000e+00 0.0000000e+00 
6.4066667e+00 5.9700000e+00 0.0000000e+00 
6.4066667e+00 5.9900000e+00 0.0000000e+00 
6.4066667e+00 6.0100000e+00 0.0000000e+00 
6.4066667e+00 6.0300000e+00 0.0000000e+00 
6.4333333e+00 5.9700000e+00 0.0000000e+00 
6.4333333e+00 5.9900000e+00 0.0000000e+00 
6.4333333e+00 6.0100000e+00 0.0000000e+00 
6.4333333e+00 6.0300000e+00 0.0000000e+00 
6.4600000e+00 5.9700000e+00 0.0000000e+00 
6.4600000e+00 5.9900000e+00 0.0000000e+00 
6.4600000e+00 6.0100000e+00 0.0000000e+00 
6.4600000e+00 6.0300000e+00 0.0000000e+00 
6.4866667e+00 5.9700000e+00 0.0000000e+00 
6.4866667e+00 5.9900000e+00 0.0000000e+00 
6.4866667e+00 6.0100000e+00 0.0000000e+00 
6.4866667e+00 6.0300000e+00 0.0000000e+00 
6.5133333e+00 5.9700000e+00 0.0000000e+00 
6.5133333e+00 5.9900000e+00 0.0000000e+00 
6.5133333e+00 6.0100000e+00 0.0000000e+00 
6.5133333e+00 6.0300000e+00 0.0000000e+00 
6.5400000e+00 5.9700000e+00 0.0000000e+00 
6.5400000e+00 5.9900000e+00 0.0000000e+00 
6.5400000e+00 6.0100000e+00 0.0000000e+00 
6.5400000e+00 6.0300000e+00 0.0000000e+00 
6.5666667e+00 5.9700000e+00 0.0000000e+00 
6.5666667e+00 5.9900000e+00 0.0000000e+00 
6.5666667e+00 6.0100000e+00 0.0000000e+00 
6.5666667e+00 6.0300000e+00 0.0000000e+00 
6.5933333e+00 5.9700000e+00 0.0000000e+00 
6.5933333e+00 5.9900000e+00 0.0000000e+00 
6.5933333e+00 6.0100000e+00 0.0000000e+00 
6.5933333e+00 6.0300000e+00 0.0000000e+00 
6.6200000e+00 5.9700000e+00 0.0000000e+00 
6.6200000e+00 5.9900000e+00 0.0000000e+00 
6.6200000e+00 6.0100000e+00 0.0000000e+00 
6.6200000e+00 6.0300000e+00 0.0000000e+00 
6.6466667e+00 5.9700000e+00 0.0000000e+00 
6.6466667e+00 5.9900000e+00 0.0000000e+00 
6.6466667e+00 6.0100000e+00 0.0000000e+00 
6.6466667e+00 6.0300000e+00 0.0000000e+00 
6.6733333e+00 5.9700000e+00 0.0000000e+00 
6.6733333e+00 5.9900000e+00 0.0000000e+00 
6.6733333e+00 6.0100000e+00 0.0000000e+00 
6.6733333e+00 6.0300000e+00 0.0000000e+00 
6.7000000e+00 5.9700000e+00 0.0000000e+00 
6.7000000e+00 5.9900000e+00 0.0000000e+00 
6.7000000e+00 6.0100000e+00 0.0000000e+00 
6.7000000e+00 6.0300000e+00 0.0000000e+00 
6.7266667e+00 5.9700000e+00 0.0000000e+00 
6.7266667e+00 5.9900000e+00 0.0000000e+00 
6.7266667e+00 6.0100000e+00 0.0000000e+00 
6.7266667e+00 6.0300000e+00 0.0000000e+00 
6.7533333e+00 5.9700000e+00 0.0000000e+00 
6.7533333e+00 5.9900000e+00 0.0000000e+00 
6.7533333e+00 6.0100000e+00 0.0000000e+00 
6.7533333e+00 6.0300000e+00 0.0000000e+00 
6.7800000e+00 5.9700000e+00 0.0000000e+00 
6.7800000e+00 5.9900000e+00 0.0000000e+00 
6.7800000e+00 6.0100000e+00 0.0000000e+00 
6.7800000e+00 6.0300000e+00 0.0000000e+00 
6.8066667e+00 5.9700000e+00 0.0000000e+00 
6.8066667e+00 5.9900000e+00 0.0000000e+00 
6.8066667e+00 6.0100000e+00 0.0000000e+00 
6.8066667e+00 6.0300000e+00 0.0000000e+00 
6.8333333e+00 5.9700000e+00 0.0000000e+00 
6.8333333e+00 5.9900000e+00 0.0000000e+00 
6.8333333e+00 6.0100000e+00 0.0000000e+00 
6.8333333e+00 6.0300000e+00 0.0000000e+00 
6.8600000e+00 5.9700000e+00 0.0000000e+00 
6.8600000e+00 5.9900000e+00 0.0000000e+00 
6.8600000e+00 6.0100000e+00 0.0000000e+00 
6.8600000e+00 6.0300000e+00 0.0000000e+00 
6.8866667e+00 5.9700000e+00 0.0000000e+00 
6.8866667e+00 5.9900000e+00 0.0000000e+00 
6.8866667e+00 6.0100000e+00 0.0000000e+00 
6.8866667e+00 6.0300000e+00 0.0000000e+00 
6.9133333e+00 5.9700000e+00 0.0000000e+00 
6.9133333e+00 5.9900000e+00 0.0000000e+00 
6.9133333e+00 6.0100000e+00 0.0000000e+00 
6.9133333e+00 6.0300000e+00 0.0000000e+00 
6.9400000e+00 5.9700000e+00 0.0000000e+00 
6.9400000e+00 5.9900000e+00 0.0000000e+00 
6.9400000e+00 6.0100000e+00 0.0000000e+00 
6.9400000e+00 6.0300000e+00 0.0000000e+00 
6.9666667e+00 5.9700000e+00 0.0000000e+00 
6.9666667e+00 5.9900000e+00 0.0000000e+00 
6.9666667e+00 6.0100000e+00 0.0000000e+00 
6.9666667e+00 6.0300000e+00 0.0000000e+00 
6.9933333e+00 5.9700000e+00 0.0000000e+00 
6.9933333e+00 5.9900000e+00 0.0000000e+00 
6.9933333e+00 6.0100000e+00 0.0000000e+00 
6.9933333e+00 6.0300000e+00 0.0000000e+00 
7.0200000e+00 5.9700000e+00 0.0000000e+00 
7.0200000e+00 5.9900000e+00 0.0000000e+00 
[...]
POINT_DATA 604
FIELD FieldData 2
DISPLACEMENT 3 604  float
0.0000000e+00 0.0000000e+00 0.0000000e+00 
0.0000000e+00 0.0000000e+00 0.0000000e+00 
4.5387252e-05 2.7441047e-05 0.0000000e+00 
1.4366228e-05 1.7872092e-05 0.0000000e+00 
0.0000000e+00 0.0000000e+00 0.0000000e+00 
-1.4541852e-05 1.7848811e-05 0.0000000e+00 
9.1456162e-05 8.8256985e-05 0.0000000e+00 
3.0325301e-05 8.0279554e-05 0.0000000e+00 
0.0000000e+00 0.0000000e+00 0.0000000e+00 
-4.5582984e-05 2.7386975e-05 0.0000000e+00 
-3.0799104e-05 8.0175671e-05 0.0000000e+00 
1.3676202e-04 1.9105103e-04 0.0000000e+00 
-9.1977593e-05 8.7951056e-05 0.0000000e+00 
4.5139692e-05 1.8292249e-04 0.0000000e+00 
-4.6157952e-05 1.8270941e-04 0.0000000e+00 
-1.3785527e-04 1.9043068e-04 0.0000000e+00 
1.8111592e-04 3.3399759e-04 0.0000000e+00 
5.9637316e-05 3.2583949e-04 0.0000000e+00 
-6.1569606e-05 3.2546364e-04 0.0000000e+00 
-1.8314441e-04 3.3287117e-04 0.0000000e+00 
2.2450031e-04 5.1648529e-04 0.0000000e+00 
7.3637259e-05 5.0827143e-04 0.0000000e+00 
-7.6963231e-05 5.0770163e-04 0.0000000e+00 
-2.2794273e-04 5.1478967e-04 0.0000000e+00 
2.6686521e-04 7.3793600e-04 0.0000000e+00 
8.7101605e-05 7.2959424e-04 0.0000000e+00 
-9.2408518e-05 7.2877945e-04 0.0000000e+00 
-2.7230346e-04 7.3549525e-04 0.0000000e+00 
3.0816285e-04 9.9763425e-04 0.0000000e+00 
9.9988229e-05 9.8914302e-04 0.0000000e+00 
-1.0795449e-04 9.8805328e-04 0.0000000e+00 
-3.1628788e-04 9.9436896e-04 0.0000000e+00 
3.4836090e-04 1.2949431e-03 0.0000000e+00 
1.1224063e-04 1.2862802e-03 0.0000000e+00 
-1.2365736e-04 1.2848879e-03 0.0000000e+00 
-3.5995246e-04 1.2907751e-03 0.0000000e+00 
3.8742035e-04 1.6292952e-03 0.0000000e+00 
1.2382234e-04 1.6203957e-03 0.0000000e+00 
-1.3956279e-04 1.6186561e-03 0.0000000e+00 
-4.0334900e-04 1.6240728e-03 0.0000000e+00 
4.2530197e-04 1.9999853e-03 0.0000000e+00 
1.3469331e-04 1.9908491e-03 0.0000000e+00 
-1.5571437e-04 1.9887398e-03 0.0000000e+00 
-4.4652920e-04 1.9936655e-03 0.0000000e+00 
4.6197555e-04 2.4064717e-03 0.0000000e+00 
1.4481405e-04 2.3970371e-03 0.0000000e+00 
-1.7215533e-04 2.3945215e-03 0.0000000e+00 
-4.8953568e-04 2.3989194e-03 0.0000000e+00 
4.9740600e-04 2.8480650e-03 0.0000000e+00 
1.5415006e-04 2.8383339e-03 0.0000000e+00 
-1.8892476e-04 2.8353914e-03 0.0000000e+00 
-5.3241565e-04 2.8392429e-03 0.0000000e+00 
5.3156747e-04 3.3242295e-03 0.0000000e+00 
1.6266671e-04 3.3141458e-03 0.0000000e+00 
-2.0606087e-04 3.3107442e-03 0.0000000e+00 
-5.7520752e-04 3.3140180e-03 0.0000000e+00 
5.6442955e-04 3.8342920e-03 0.0000000e+00 
1.7033414e-04 3.8238588e-03 0.0000000e+00 
-2.2359817e-04 3.8199801e-03 0.0000000e+00 
-6.1795370e-04 3.8226587e-03 0.0000000e+00 
5.9597058e-04 4.3777229e-03 0.0000000e+00 
1.7712217e-04 4.3668894e-03 0.0000000e+00 
-2.4157037e-04 4.3625054e-03 0.0000000e+00 
-6.6068845e-04 4.3645629e-03 0.0000000e+00 
6.2616485e-04 4.9538649e-03 0.0000000e+00 
1.8300518e-04 4.9426353e-03 0.0000000e+00 
-2.6000775e-04 4.9377304e-03 0.0000000e+00 
-7.0344938e-04 4.9391506e-03 0.0000000e+00 
6.5499436e-04 5.5621949e-03 0.0000000e+00 
1.8795726e-04 5.5505234e-03 0.0000000e+00 
-2.7893973e-04 5.5450731e-03 0.0000000e+00 
-7.4626720e-04 5.5458347e-03 0.0000000e+00 
6.8243803e-04 6.2020708e-03 0.0000000e+00 
1.9195669e-04 6.1899629e-03 0.0000000e+00 
-2.9839269e-04 6.1839539e-03 0.0000000e+00 
-7.8917473e-04 6.1840422e-03 0.0000000e+00 
7.0848105e-04 6.8729767e-03 0.0000000e+00 
1.9498160e-04 6.8603909e-03 0.0000000e+00 
-3.1839199e-04 6.8538023e-03 0.0000000e+00 
-8.3219960e-04 6.8532004e-03 0.0000000e+00 
7.3310704e-04 7.5742849e-03 0.0000000e+00 
1.9701387e-04 7.5612280e-03 0.0000000e+00 
-3.3896059e-04 7.5540491e-03 0.0000000e+00 
-8.7536978e-04 7.5527437e-03 0.0000000e+00 
7.5630441e-04 8.3054875e-03 0.0000000e+00 
1.9803479e-04 8.2919232e-03 0.0000000e+00 
-3.6011956e-04 8.2841345e-03 0.0000000e+00 
-9.1870996e-04 8.2821120e-03 0.0000000e+00 
7.7805962e-04 9.0659812e-03 0.0000000e+00 
1.9803445e-04 9.0519057e-03 0.0000000e+00 
-3.8188871e-04 9.0434976e-03 0.0000000e+00 
-9.6224554e-04 9.0407476e-03 0.0000000e+00 
7.9837110e-04 9.8552162e-03 0.0000000e+00 
1.9699253e-04 9.8406257e-03 0.0000000e+00 
-4.0428779e-04 9.8315901e-03 0.0000000e+00 
-1.0060021e-03 9.8281029e-03 0.0000000e+00 
8.1722922e-04 1.0672693e-02 0.0000000e+00 
1.9490107e-04 1.0657556e-02 0.0000000e+00 
-4.2733378e-04 1.0647877e-02 0.0000000e+00 
-1.0500026e-03 1.0643643e-02 0.0000000e+00 
8.3462794e-04 1.1517822e-02 0.0000000e+00 
1.9174922e-04 1.1502149e-02 0.0000000e+00 
-4.5104127e-04 1.1491822e-02 0.0000000e+00 
-1.0942647e-03 1.1486833e-02 0.0000000e+00 
8.5056136e-04 1.2390125e-02 0.0000000e+00 
1.8752710e-04 1.2373886e-02 0.0000000e+00 
-4.7542364e-04 1.2362899e-02 0.0000000e+00 
-1.1388074e-03 1.2357148e-02 0.0000000e+00 
8.6502674e-04 1.3289023e-02 0.0000000e+00 
1.8222716e-04 1.3272232e-02 0.0000000e+00 
-5.0049322e-04 1.3260581e-02 0.0000000e+00 
-1.1836448e-03 1.3254063e-02 0.0000000e+00 
8.7802015e-04 1.4214051e-02 0.0000000e+00 
1.7584249e-04 1.4196677e-02 0.0000000e+00 
-5.2626024e-04 1.4184353e-02 0.0000000e+00 
-1.2287938e-03 1.4177062e-02 0.0000000e+00 
8.8954211e-04 1.5164637e-02 0.0000000e+00 
1.6836820e-04 1.5146699e-02 0.0000000e+00 
-5.5273448e-04 1.5133700e-02 0.0000000e+00 
-1.2742655e-03 1.5125633e-02 0.0000000e+00 
8.9959078e-04 1.6140331e-02 0.0000000e+00 
1.5980000e-04 1.6121799e-02 0.0000000e+00 
-5.7992343e-04 1.6108117e-02 0.0000000e+00 
-1.3200746e-03 1.6099270e-02 0.0000000e+00 
9.0816965e-04 1.7140569e-02 0.0000000e+00 
1.5013546e-04 1.7121463e-02 0.0000000e+00 
-6.0783450e-04 1.7107101e-02 0.0000000e+00 
-1.3662290e-03 1.7097473e-02 0.0000000e+00 
9.1527884e-04 1.8164915e-02 0.0000000e+00 
1.3937273e-04 1.8145207e-02 0.0000000e+00 
-6.3647263e-04 1.8130156e-02 0.0000000e+00 
-1.4127417e-03 1.8119743e-02 0.0000000e+00 
9.2092451e-04 1.9212812e-02 0.0000000e+00 
1.2751167e-04 1.9192525e-02 0.0000000e+00 
-6.6584304e-04 1.9176789e-02 0.0000000e+00 
-1.4596177e-03 1.9165595e-02 0.0000000e+00 
9.2510859e-04 2.0283838e-02 0.0000000e+00 
1.1455262e-04 2.0262944e-02 0.0000000e+00 
-6.9594834e-04 2.0246518e-02 0.0000000e+00 
-1.5068681e-03 2.0234539e-02 0.0000000e+00 
9.2784006e-04 2.1377446e-02 0.0000000e+00 
1.0049746e-04 2.1355971e-02 0.0000000e+00 
-7.2679200e-04 2.1338860e-02 0.0000000e+00 
-1.5544954e-03 2.1326101e-02 0.0000000e+00 
9.2912292e-04 2.2493226e-02 0.0000000e+00 
8.5347918e-05 2.2471143e-02 0.0000000e+00 
-7.5837398e-04 2.2453339e-02 0.0000000e+00 
-1.6025083e-03 2.2439798e-02 0.0000000e+00 
9.2896525e-04 2.3630653e-02 0.0000000e+00 
6.9114384e-05 2.3607975e-02 0.0000000e+00 
-7.9069417e-04 2.3589486e-02 0.0000000e+00 
-1.6509103e-03 2.3575167e-02 0.0000000e+00 
9.2738458e-04 2.4789263e-02 0.0000000e+00 
5.1792405e-05 2.4766004e-02 0.0000000e+00 
-8.2375641e-04 2.4746837e-02 0.0000000e+00 
-1.6997080e-03 2.4731749e-02 0.0000000e+00 
9.2438535e-04 2.5968661e-02 0.0000000e+00 
3.3392845e-05 2.5944794e-02 0.0000000e+00 
-8.5755827e-04 2.5924941e-02 0.0000000e+00 
-1.7489097e-03 2.5909080e-02 0.0000000e+00 
9.1998145e-04 2.7168320e-02 0.0000000e+00 
1.3921466e-05 2.7143878e-02 0.0000000e+00 
-8.9209848e-04 2.7123352e-02 0.0000000e+00 
-1.7985136e-03 2.7106730e-02 0.0000000e+00 
9.1418040e-04 2.8387877e-02 0.0000000e+00 
-6.6155899e-06 2.8362830e-02 0.0000000e+00 
-9.2737343e-04 2.8341626e-02 0.0000000e+00 
-1.8485244e-03 2.8324239e-02 0.0000000e+00 
9.0699715e-04 2.9626811e-02 0.0000000e+00 
-2.8210354e-05 2.9601197e-02 0.0000000e+00 
-9.6338077e-04 2.9579327e-02 0.0000000e+00 
-1.8989388e-03 2.9561191e-02 0.0000000e+00 
8.9844029e-04 3.0884773e-02 0.0000000e+00 
-5.0855220e-05 3.0858561e-02 0.0000000e+00 
-1.0001151e-03 3.0836022e-02 0.0000000e+00 
-1.9497604e-03 3.0817132e-02 0.0000000e+00 
8.8852610e-04 3.2161251e-02 0.0000000e+00 
-7.4540733e-05 3.2134480e-02 0.0000000e+00 
-1.0375729e-03 3.2111287e-02 0.0000000e+00 
-2.0009845e-03 3.2091660e-02 0.0000000e+00 
8.7726452e-04 3.3455908e-02 0.0000000e+00 
-9.9258117e-05 3.3428548e-02 0.0000000e+00 
-1.0757472e-03 3.3404696e-02 0.0000000e+00 
-2.0526133e-03 3.3384327e-02 0.0000000e+00 
8.6467295e-04 3.4768239e-02 0.0000000e+00 
-1.2499658e-04 3.4740331e-02 0.0000000e+00 
-1.1146333e-03 3.4715837e-02 0.0000000e+00 
-2.1046410e-03 3.4694748e-02 0.0000000e+00 
8.5076251e-04 3.6097923e-02 0.0000000e+00 
-1.5174630e-04 3.6069436e-02 0.0000000e+00 
-1.1542231e-03 3.6044296e-02 0.0000000e+00 
-2.1570681e-03 3.6022478e-02 0.0000000e+00 
8.3555156e-04 3.7444461e-02 0.0000000e+00 
-1.7949526e-04 3.7415439e-02 0.0000000e+00 
-1.1945107e-03 3.7389671e-02 0.0000000e+00 
-2.2098882e-03 3.7367149e-02 0.0000000e+00 
8.1905230e-04 3.8807545e-02 0.0000000e+00 
-2.0823278e-04 3.8777955e-02 0.0000000e+00 
-1.2354870e-03 3.8751557e-02 0.0000000e+00 
-2.2631005e-03 3.8728322e-02 0.0000000e+00 
8.0128446e-04 4.0186684e-02 0.0000000e+00 
-2.3794597e-04 4.0156573e-02 0.0000000e+00 
-1.2771454e-03 4.0129562e-02 0.0000000e+00 
-2.3166969e-03 4.0105642e-02 0.0000000e+00 
7.8226189e-04 4.1581584e-02 0.0000000e+00 
-2.6862413e-04 4.1550920e-02 0.0000000e+00 
-1.3194756e-03 4.1523291e-02 0.0000000e+00 
-2.3706750e-03 4.1498676e-02 0.0000000e+00 
7.6199991e-04 4.2991782e-02 0.0000000e+00 
-3.0024453e-04 4.2960592e-02 0.0000000e+00 
-1.3624655e-03 4.2932361e-02 0.0000000e+00 
-2.4250305e-03 4.2907070e-02 0.0000000e+00 
7.4052640e-04 4.4416900e-02 0.0000000e+00 
-3.3280730e-04 4.4385208e-02 0.0000000e+00 
-1.4061146e-03 4.4356394e-02 0.0000000e+00 
-2.4797586e-03 4.4330447e-02 0.0000000e+00 
7.1785321e-04 4.5856646e-02 0.0000000e+00 
-3.6629160e-04 4.5824421e-02 0.0000000e+00 
-1.4504091e-03 4.5795016e-02 0.0000000e+00 
-2.5348591e-03 4.5768403e-02 0.0000000e+00 
6.9400116e-04 4.7310552e-02 0.0000000e+00 
-4.0068290e-04 4.7277845e-02 0.0000000e+00 
-1.4953401e-03 4.7247870e-02 0.0000000e+00 
-2.5903236e-03 4.7220622e-02 0.0000000e+00 
6.6898590e-04 4.8778362e-02 0.0000000e+00 
-4.3596887e-04 4.8745137e-02 0.0000000e+00 
-1.5408964e-03 4.8714591e-02 0.0000000e+00 
-2.6461467e-03 4.8686696e-02 0.0000000e+00 
6.4282799e-04 5.0259616e-02 0.0000000e+00 
-4.7213372e-04 5.0225926e-02 0.0000000e+00 
-1.5870685e-03 5.0194830e-02 0.0000000e+00 
-2.7023197e-03 5.0166321e-02 0.0000000e+00 
6.1554312e-04 5.1754070e-02 0.0000000e+00 
-5.0916440e-04 5.1719878e-02 0.0000000e+00 
-1.6338443e-03 5.1688230e-02 0.0000000e+00 
-2.7588372e-03 5.1659094e-02 0.0000000e+00 
5.8715227e-04 5.3261269e-02 0.0000000e+00 
-5.4704453e-04 5.3226631e-02 0.0000000e+00 
-1.6812140e-03 5.3194452e-02 0.0000000e+00 
-2.8156900e-03 5.3164725e-02 0.0000000e+00 
5.5767159e-04 5.4780985e-02 0.0000000e+00 
-5.8576068e-04 5.4745863e-02 0.0000000e+00 
-1.7291648e-03 5.4713151e-02 0.0000000e+00 
-2.8728718e-03 5.4682819e-02 0.0000000e+00 
5.2712242e-04 5.6312769e-02 0.0000000e+00 
-6.2529599e-04 5.6277219e-02 0.0000000e+00 
-1.7776865e-03 5.6243997e-02 0.0000000e+00 
-2.9303734e-03 5.6213096e-02 0.0000000e+00 
4.9552127e-04 5.7856404e-02 0.0000000e+00 
-6.6563675e-04 5.7820388e-02 0.0000000e+00 
-1.8267660e-03 5.7786653e-02 0.0000000e+00 
-2.9881878e-03 5.7755169e-02 0.0000000e+00 
4.6288974e-04 5.9411450e-02 0.0000000e+00 
-7.0676566e-04 5.9375025e-02 0.0000000e+00 
-1.8763925e-03 5.9340800e-02 0.0000000e+00 
-3.0463056e-03 5.9308770e-02 0.0000000e+00 
4.2924458e-04 6.0977699e-02 0.0000000e+00 
-7.4866883e-04 6.0940828e-02 0.0000000e+00 
-1.9265527e-03 6.0906111e-02 0.0000000e+00 
-3.1047192e-03 6.0873520e-02 0.0000000e+00 
3.9460835e-04 6.2554721e-02 0.0000000e+00 
-7.9132895e-04 6.2517460e-02 0.0000000e+00 
-1.9772362e-03 6.2482276e-02 0.0000000e+00 
-3.1634183e-03 6.2449162e-02 0.0000000e+00 
3.5899877e-04 6.4142321e-02 0.0000000e+00 
-8.3473283e-04 6.4104633e-02 0.0000000e+00 
-2.0284288e-03 6.4068974e-02 0.0000000e+00 
-3.2223944e-03 6.4035322e-02 0.0000000e+00 
3.2243227e-04 6.5740100e-02 0.0000000e+00 
-8.7885265e-04 6.5702018e-02 0.0000000e+00 
-2.0801138e-03 6.5665905e-02 0.0000000e+00 
-3.2816420e-03 6.5631740e-02 0.0000000e+00 
2.8494067e-04 6.7347757e-02 0.0000000e+00 
-9.2368865e-04 6.7309312e-02 0.0000000e+00 
-2.1322907e-03 6.7272767e-02 0.0000000e+00 
-3.3411513e-03 6.7238115e-02 0.0000000e+00 
2.4653734e-04 6.8965095e-02 0.0000000e+00 
-9.6921657e-04 6.8926249e-02 0.0000000e+00 
-2.1849411e-03 6.8889263e-02 0.0000000e+00 
-3.4009197e-03 6.8854108e-02 0.0000000e+00 
2.0724503e-04 7.0591703e-02 0.0000000e+00 
-1.0154192e-03 7.0552516e-02 0.0000000e+00 
-2.2380544e-03 7.0515116e-02 0.0000000e+00 
-3.4609371e-03 7.0479498e-02 0.0000000e+00 
1.6708113e-04 7.2227424e-02 0.0000000e+00 
-1.0622830e-03 7.2187854e-02 0.0000000e+00 
-2.2916170e-03 7.2150035e-02 0.0000000e+00 
-3.5211949e-03 7.2113935e-02 0.0000000e+00 
1.2606767e-04 7.3871853e-02 0.0000000e+00 
-1.1097902e-03 7.3831963e-02 0.0000000e+00 
-2.3456182e-03 7.3793750e-02 0.0000000e+00 
-3.5816836e-03 7.3757211e-02 0.0000000e+00 
8.4221149e-05 7.5524845e-02 0.0000000e+00 
-1.1579270e-03 7.5484591e-02 0.0000000e+00 
-2.4000442e-03 7.5445980e-02 0.0000000e+00 
-3.6423952e-03 7.5408983e-02 0.0000000e+00 
4.1563696e-05 7.7186004e-02 0.0000000e+00 
-1.2066757e-03 7.7145448e-02 0.0000000e+00 
-2.4548843e-03 7.7106465e-02 0.0000000e+00 
-3.7033201e-03 7.7069052e-02 0.0000000e+00 
-1.8883184e-06 7.8855195e-02 0.0000000e+00 
-1.2560225e-03 7.8814294e-02 0.0000000e+00 
-2.5101247e-03 7.8774933e-02 0.0000000e+00 
-3.7644506e-03 7.8737083e-02 0.0000000e+00 
-4.6112840e-05 8.0532028e-02 0.0000000e+00 
-1.3059496e-03 8.0490845e-02 0.0000000e+00 
-2.5657549e-03 8.0451133e-02 0.0000000e+00 
-3.8257772e-03 8.0412891e-02 0.0000000e+00 
-9.1093687e-05 8.2216382e-02 0.0000000e+00 
-1.3564438e-03 8.2174872e-02 0.0000000e+00 
-2.6217611e-03 8.2134803e-02 0.0000000e+00 
-3.8872921e-03 8.2096146e-02 0.0000000e+00 
-1.3680898e-04 8.3907872e-02 0.0000000e+00 
-1.4074871e-03 8.3866100e-02 0.0000000e+00 
-2.6781331e-03 8.3825701e-02 0.0000000e+00 
-3.9489860e-03 8.3786674e-02 0.0000000e+00 
-1.8324279e-04 8.5606391e-02 0.0000000e+00 
-1.4590666e-03 8.5564309e-02 0.0000000e+00 
-2.7348571e-03 8.5523574e-02 0.0000000e+00 
-4.0108514e-03 8.5484154e-02 0.0000000e+00 
-2.3037257e-04 8.7311560e-02 0.0000000e+00 
-1.5111651e-03 8.7269235e-02 0.0000000e+00 
-2.7919238e-03 8.7228190e-02 0.0000000e+00 
-4.0728782e-03 8.7188424e-02 0.0000000e+00 
-2.7818167e-04 8.9023282e-02 0.0000000e+00 
-1.5637706e-03 8.8980668e-02 0.0000000e+00 
-2.8493191e-03 8.8939302e-02 0.0000000e+00 
-4.1350580e-03 8.8899165e-02 0.0000000e+00 
-3.2665585e-04 9.0741220e-02 0.0000000e+00 
-1.6168540e-03 9.0698352e-02 0.0000000e+00 
-2.9070257e-03 9.0656687e-02 0.0000000e+00 
-4.1973871e-03 9.0616207e-02 0.0000000e+00 
-3.7576292e-04 9.2465145e-02 0.0000000e+00 
-1.6704203e-03 9.2422059e-02 0.0000000e+00 
-2.9650475e-03 9.2380120e-02 0.0000000e+00 
-4.2598555e-03 9.2339327e-02 0.0000000e+00 
-4.2549194e-04 9.4194956e-02 0.0000000e+00 
-1.7244450e-03 9.4151602e-02 0.0000000e+00 
-3.0233654e-03 9.4109374e-02 0.0000000e+00 
-4.3224624e-03 9.4068241e-02 0.0000000e+00 
-4.7582175e-04 9.5930293e-02 0.0000000e+00 
-1.7789120e-03 9.5886741e-02 0.0000000e+00 
-3.0819706e-03 9.5844252e-02 0.0000000e+00 
-4.3851994e-03 9.5802828e-02 0.0000000e+00 
-5.2673669e-04 9.7671096e-02 0.0000000e+00 
-1.8338102e-03 9.7627293e-02 0.0000000e+00 
-3.1408507e-03 9.7584534e-02 0.0000000e+00 
-4.4480587e-03 9.7542790e-02 0.0000000e+00 
-5.7821709e-04 9.9417014e-02 0.0000000e+00 
-1.8891232e-03 9.9373030e-02 0.0000000e+00 
-3.1999974e-03 9.9330029e-02 0.0000000e+00 
-4.5110328e-03 9.9288015e-02 0.0000000e+00 
-6.3024851e-04 1.0116800e-01 0.0000000e+00 
-1.9448401e-03 1.0112378e-01 0.0000000e+00 
-3.2593982e-03 1.0108053e-01 0.0000000e+00 
-4.5741148e-03 1.0103821e-01 0.0000000e+00 
-6.8281179e-04 1.0292371e-01 0.0000000e+00 
-2.0009445e-03 1.0287932e-01 0.0000000e+00 
-3.3190450e-03 1.0283585e-01 0.0000000e+00 
-4.6372977e-03 1.0279328e-01 0.0000000e+00 
-7.3589279e-04 1.0468410e-01 0.0000000e+00 
-2.0574261e-03 1.0463949e-01 0.0000000e+00 
-3.3789255e-03 1.0459578e-01 0.0000000e+00 
-4.7005746e-03 1.0455293e-01 0.0000000e+00 
-7.8947290e-04 1.0644883e-01 0.0000000e+00 
-2.1142688e-03 1.0640408e-01 0.0000000e+00 
-3.4390321e-03 1.0636016e-01 0.0000000e+00 
-4.7639390e-03 1.0631709e-01 0.0000000e+00 
-8.4353836e-04 1.0821789e-01 0.0000000e+00 
-2.1714627e-03 1.0817293e-01 0.0000000e+00 
-3.4993528e-03 1.0812880e-01 0.0000000e+00 
-4.8273840e-03 1.0808545e-01 0.0000000e+00 
-8.9807118e-04 1.0999093e-01 0.0000000e+00 
-2.2289921e-03 1.0994584e-01 0.0000000e+00 
-3.5598803e-03 1.0990152e-01 0.0000000e+00 
-4.8909037e-03 1.0985796e-01 0.0000000e+00 
-9.5305799e-04 1.1176794e-01 0.0000000e+00 
-2.2868477e-03 1.1172266e-01 0.0000000e+00 
-3.6206031e-03 1.1167814e-01 0.0000000e+00 
-4.9544914e-03 1.1163433e-01 0.0000000e+00 
-1.0084804e-03 1.1354860e-01 0.0000000e+00 
-2.3450145e-03 1.1350320e-01 0.0000000e+00 
-3.6815148e-03 1.1345850e-01 0.0000000e+00 
-5.0181405e-03 1.1341451e-01 0.0000000e+00 
-1.0643243e-03 1.1533289e-01 0.0000000e+00 
-2.4034847e-03 1.1528732e-01 0.0000000e+00 
-3.7426039e-03 1.1524243e-01 0.0000000e+00 
-5.0818435e-03 1.1519821e-01 0.0000000e+00 
-1.1205809e-03 1.1712054e-01 0.0000000e+00 
-2.4622306e-03 1.1707483e-01 0.0000000e+00 
-3.8038545e-03 1.1702977e-01 0.0000000e+00 
-5.1456006e-03 1.1698535e-01 0.0000000e+00 
-1.1772207e-03 1.1891139e-01 0.0000000e+00 
-2.5212628e-03 1.1886558e-01 0.0000000e+00 
-3.8652759e-03 1.1882038e-01 0.0000000e+00 
-5.2094027e-03 1.1877578e-01 0.0000000e+00 
-1.2342366e-03 1.2070541e-01 0.0000000e+00 
-2.5805595e-03 1.2065944e-01 0.0000000e+00 
-3.9268504e-03 1.2061408e-01 0.0000000e+00 
-5.2732516e-03 1.2056928e-01 0.0000000e+00 
-1.2916120e-03 1.2250231e-01 0.0000000e+00 
-2.6401072e-03 1.2245625e-01 0.0000000e+00 
-3.9885723e-03 1.2241075e-01 0.0000000e+00 
-5.3371423e-03 1.2236580e-01 0.0000000e+00 
-1.3493343e-03 1.2430210e-01 0.0000000e+00 
-2.6998990e-03 1.2425589e-01 0.0000000e+00 
-4.0504323e-03 1.2421024e-01 0.0000000e+00 
-5.4010685e-03 1.2416510e-01 0.0000000e+00 
-1.4073883e-03 1.2610448e-01 0.0000000e+00 
-2.7599215e-03 1.2605820e-01 0.0000000e+00 
-4.1124250e-03 1.2601243e-01 0.0000000e+00 
-5.4650263e-03 1.2596715e-01 0.0000000e+00 
-1.4657631e-03 1.2790949e-01 0.0000000e+00 
-2.8201677e-03 1.2786308e-01 0.0000000e+00 
-4.1745412e-03 1.2781716e-01 0.0000000e+00 
-5.5290106e-03 1.2777171e-01 0.0000000e+00 
-1.5244438e-03 1.2971683e-01 0.0000000e+00 
-2.8806244e-03 1.2967036e-01 0.0000000e+00 
-4.2367758e-03 1.2962433e-01 0.0000000e+00 
-5.5930179e-03 1.2957876e-01 0.0000000e+00 
-1.5834202e-03 1.3152655e-01 0.0000000e+00 
-2.9412854e-03 1.3147995e-01 0.0000000e+00 
-4.2991199e-03 1.3143380e-01 0.0000000e+00 
-5.6570436e-03 1.3138807e-01 0.0000000e+00 
-1.6426778e-03 1.3333836e-01 0.0000000e+00 
-3.0021377e-03 1.3329171e-01 0.0000000e+00 
-4.3615691e-03 1.3324546e-01 0.0000000e+00 
-5.7210843e-03 1.3319962e-01 0.0000000e+00 
-1.7022068e-03 1.3515230e-01 0.0000000e+00 
-3.0631757e-03 1.3510554e-01 0.0000000e+00 
-4.4241147e-03 1.3505918e-01 0.0000000e+00 
-5.7851362e-03 1.3501319e-01 0.0000000e+00 
-1.7619932e-03 1.3696811e-01 0.0000000e+00 
-3.1243869e-03 1.3692130e-01 0.0000000e+00 
-4.4867528e-03 1.3687485e-01 0.0000000e+00 
-5.8491960e-03 1.3682877e-01 0.0000000e+00 
-1.8220279e-03 1.3878583e-01 0.0000000e+00 
-3.1857659e-03 1.3873892e-01 0.0000000e+00 
-4.5494751e-03 1.3869237e-01 0.0000000e+00 
-5.9132606e-03 1.3864615e-01 0.0000000e+00 
-1.8822962e-03 1.4060519e-01 0.0000000e+00 
-3.2473015e-03 1.4055825e-01 0.0000000e+00 
-4.6122790e-03 1.4051162e-01 0.0000000e+00 
-5.9773257e-03 1.4046532e-01 0.0000000e+00 
-1.9427886e-03 1.4242627e-01 0.0000000e+00 
-3.3089897e-03 1.4237923e-01 0.0000000e+00 
-4.6751559e-03 1.4233251e-01 0.0000000e+00 
-6.0413878e-03 1.4228608e-01 0.0000000e+00 
-2.0035002e-03 1.4424882e-01 0.0000000e+00 
-3.3708062e-03 1.4420173e-01 0.0000000e+00 
-4.7380935e-03 1.4415493e-01 0.0000000e+00 
-6.1054498e-03 1.4410841e-01 0.0000000e+00 
-2.0644052e-03 1.4607277e-01 0.0000000e+00 
-3.4327659e-03 1.4602565e-01 0.0000000e+00 
-4.8011051e-03 1.4597879e-01 0.0000000e+00 