# vtk DataFile Version 4.0
vtk output
ASCII
DATASET UNSTRUCTURED_GRID
POINTS 604 float
5.5000000e+00 5.9700000e+00 0.0000000e+00 
5.5000000e+00 5.9900000e+00 0.0000000e+00 
5.5266667e+00 5.9700000e+00 0.0000000e+00 
5.5266667e+00 5.9900000e+00 0.0000000e+00 
5.5000000e+00 6.0100000e+00 0.0000000e+00 
5.5266667e+00 6.0100000e+00 0.0000000e+00 
5.5533333e+00 5.9700000e+00 0.0000000e+00 
5.5533333e+00 5.9900000e+00 0.0000000e+00 
5.5000000e+00 6.0300000e+00 0.0000000e+00 
5.5266667e+00 6.0300000e+00 0.0000000e+00 
5.5533333e+00 6.0100000e+00 0.0000000e+00 
5.5800000e+00 5.9700000e+00 0.0000000e+00 
5.5533333e+00 6.0300000e+00 0.0000000e+00 
5.5800000e+00 5.9900000e+00 0.0000000e+00 
5.5800000e+00 6.0100000e+00 0.0000000e+00 
5.5800000e+00 6.0300000e+00 0.0000000e+00 
5.6066667e+00 5.9700000e+00 0.0000000e+00 
5.6066667e+00 5.9900000e+00 0.0000000e+00 
5.6066667e+00 6.0100000e+00 0.0000000e+00 
5.6066667e+00 6.0300000e+00 0.0000000e+00 
5.6333333e+00 5.9700000e+00 0.0000000e+00 
5.6333333e+00 5.9900000e+00 0.0000000e+00 
5.6333333e+00 6.0100000e+00 0.0000000e+00 
5.6333333e+00 6.0300000e+00 0.0000000e+00 
5.6600000e+00 5.9700000e+00 0.0000000e+00 
5.6600000e+00 5.9900000e+00 0.0000000e+00 
5.6600000e+00 6.0100000e+00 0.0000000e+00 
5.6600000e+00 6.0300000e+00 0.0000000e+00 
5.6866667e+00 5.9700000e+00 0.0000000e+00 
5.6866667e+00 5.9900000e+00 0.0000000e+00 
5.6866667e+00 6.0100000e+00 0.0000000e+00 
5.6866667e+00 6.0300000e+00 0.0000000e+00 
5.7133333e+00 5.9700000e+00 0.0000000e+00 
5.7133333e+00 5.9900000e+00 0.0000000e+00 
5.7133333e+00 6.0100000e+00 0.0000000e+00 
5.7133333e+00 6.0300000e+00 0.0000000e+00 
5.7400000e+00 5.9700000e+00 0.0000000e+00 
5.7400000e+00 5.9900000e+00 0.0000000e+00 
5.7400000e+00 6.0100000e+00 0.0000000e+00 
5.7400000e+00 6.0300000e+00 0.0000000e+00 
5.7666667e+00 5.9700000e+00 0.0000000e+00 
5.7666667e+00 5.9900000e+00 0.0000000e+00 
5.7666667e+00 6.0100000e+00 0.0000000e+00 
5.7666667e+00 6.0300000e+00 0.0000000e+00 
5.7933333e+00 5.9700000e+00 0.0000000e+00 
5.7933333e+00 5.9900000e+00 0.0000000e+00 
5.7933333e+00 6.0100000e+00 0.0000000e+00 
5.7933333e+00 6.0300000e+00 0.0000000e+00 
5.8200000e+00 5.9700000e+00 0.0000000e+00 
5.8200000e+00 5.9900000e+00 0.0000000e+00 
5.8200000e+00 6.0100000e+00 0.0000000e+00 
5.8200000e+00 6.0300000e+00 0.0000000e+00 
5.8466667e+00 5.9700000e+00 0.0000000e+00 
5.8466667e+00 5.9900000e+00 0.0000000e+00 
5.8466667e+00 6.0100000e+00 0.0000000e+00 
5.8466667e+00 6.0300000e+00 0.0000000e+00 
5.8733333e+00 5.9700000e+00 0.0000000e+00 
5.8733333e+00 5.9900000e+00 0.0000000e+00 
5.8733333e+00 6.0100000e+00 0.0000000e+00 
5.8733333e+00 6.0300000e+00 0.0000000e+00 
5.9000000e+00 5.9700000e+00 0.0000000e+00 
5.9000000e+00 5.9900000e+00 0.0000000e+00 
5.9000000e+00 6.0100000e+00 0.0000000e+00 
5.9000000e+00 6.0300000e+00 0.0000000e+00 
5.9266667e+00 5.9700000e+00 0.0000000e+00 
5.9266667e+00 5.9900000e+00 0.0000000e+00 
5.9266667e+00 6.0100000e+00 0.0000000e+00 
5.9266667e+00 6.0300000e+00 0.0000000e+00 
5.9533333e+00 5.9700000e+00 0.0000000e+00 
5.9533333e+00 5.9900000e+00 0.0000000e+00 
5.9533333e+00 6.0100000e+00 0.0000000e+00 
5.9533333e+00 6.0300000e+00 0.0000000e+00 
5.9800000e+00 5.9700000e+00 0.0000000e+00 
5.9800000e+00 5.9900000e+00 0.0000000e+00 
5.9800000e+00 6.0100000e+00 0.0000000e+00 
5.9800000e+00 6.0300000e+00 0.0000000e+00 
6.0066667e+00 5.9700000e+00 0.0000000e+00 
6.0066667e+00 5.9900000e+00 0.0000000e+00 
6.0066667e+00 6.0100000e+00 0.0000000e+00 
6.0066667e+00 6.0300000e+00 0.0000000e+00 
6.0333333e+00 5.9700000e+00 0.0000000e+00 
6.0333333e+00 5.9900000e+00 0.0000000e+00 
6.0333333e+00 6.0100000e+00 0.0000000e+00 
6.0333333e+00 6.0300000e+00 0.0000000e+00 
6.0600000e+00 5.9700000e+00 0.0000000e+00 
6.0600000e+00 5.9900000e+00 0.0000000e+00 
6.0600000e+00 6.0100000e+00 0.0000000e+00 
6.0600000e+00 6.0300000e+00 0.0000000e+00 
6.0866667e+00 5.9700000e+00 0.0000000e+00 
6.0866667e+00 5.9900000e+00 0.0000000e+00 
6.0866667e+00 6.0100000e+00 0.0000000e+00 
6.0866667e+00 6.0300000e+00 0.0000000e+00 
6.1133333e+00 5.9700000e+00 0.0000000e+00 
6.1133333e+00 5.9900000e+00 0.0000000e+00 
6.1133333e+00 6.0100000e+00 0.0000000e+00 
6.1133333e+00 6.0300000e+00 0.0000000e+00 
6.1400000e+00 5.9700000e+00 0.0000000e+00 
6.1400000e+00 5.9900000e+00 0.0000000e+00 
6.1400000e+00 6.0100000e+00 0.0000000e+00 
6.1400000e+00 6.0300000e+00 0.0000000e+00 
6.1666667e+00 5.9700000e+00 0.0000000e+00 
6.1666667e+00 5.9900000e+00 0.0000000e+00 
6.1666667e+00 6.0100000e+00 0.0000000e+00 
6.1666667e+00 6.0300000e+00 0.0000000e+00 
6.1933333e+00 5.9700000e+00 0.0000000e+00 
6.1933333e+00 5.9900000e+00 0.0000000e+00 
6.1933333e+00 6.0100000e+00 0.0000000e+00 
6.1933333e+00 6.0300000e+00 0.0000000e+00 
6.2200000e+00 5.9700000e+00 0.0000000e+00 
6.2200000e+00 5.9900000e+00 0.0000000e+00 
6.2200000e+00 6.0100000e+00 0.0000000e+00 
6.2200000e+00 6.0300000e+00 0.0000000e+00 
6.2466667e+00 5.9700000e+00 0.0000000e+00 
6.2466667e+00 5.9900000e+00 0.0000000e+00 
6.2466667e+00 6.0100000e+00 0.0000000e+00 
6.2466667e+00 6.0300000e+00 0.0000000e+00 
6.2733333e+00 5.9700000e+00 0.0000000e+00 
6.2733333e+00 5.9900000e+00 0.0000000e+00 
6.2733333e+00 6.0100000e+00 0.0000000e+00 
6.2733333e+00 6.0300000e+00 0.0000000e+00 
6.3000000e+00 5.9700000e+00 0.0000000e+00 
6.3000000e+00 5.9900000e+00 0.0000000e+00 
6.3000000e+00 6.0100000e+00 0.0000000e+00 
6.3000000e+00 6.0300000e+00 0.0000000e+00 
6.3266667e+00 5.9700000e+00 0.0000000e+00 
6.3266667e+00 5.9900000e+00 0.0000000e+00 
6.3266667e+00 6.0100000e+00 0.0000000e+00 
6.3266667e+00 6.0300000e+00 0.0000000e+00 
6.3533333e+00 5.9700000e+00 0.0000000e+00 
6.3533333e+00 5.9900000e+00 0.0000000e+00 
6.3533333e+00 6.0100000e+00 0.0000000e+00 
6.3533333e+00 6.0300000e+00 0.0000000e+00 
6.3800000e+00 5.9700000e+00 0.0000000e+00 
6.3800000e+00 5.9900000e+00 0.0000000e+00 
6.3800000e+00 6.0100000e+00 0.0000000e+00 
6.3800000e+00 6.0300000e+00 0.0000000e+00 
6.4066667e+00 5.9700000e+00 0.0000000e+00 
6.4066667e+00 5.9900000e+00 0.0000000e+00 
6.4066667e+00 6.0100000e+00 0.0000000e+00 
6.4066667e+00 6.0300000e+00 0.0000000e+00 
6.4333333e+00 5.9700000e+00 0.0000000e+00 
6.4333333e+00 5.9900000e+00 0.0000000e+00 
6.4333333e+00 6.0100000e+00 0.0000000e+00 
6.4333333e+00 6.0300000e+00 0.0000000e+00 
6.4600000e+00 5.9700000e+00 0.0000000e+00 
6.4600000e+00 5.9900000e+00 0.0000000e+00 
6.4600000e+00 6.0100000e+00 0.0000000e+00 
6.4600000e+00 6.0300000e+00 0.0000000e+00 
6.4866667e+00 5.9700000e+00 0.0000000e+00 
6.4866667e+00 5.9900000e+00 0.0000000e+00 
6.4866667e+00 6.0100000e+00 0.0000000e+00 
6.4866667e+00 6.0300000e+00 0.0000000e+00 
6.5133333e+00 5.9700000e+00 0.0000000e+00 
6.5133333e+00 5.9900000e+00 0.0000000e+00 
6.5133333e+00 6.0100000e+00 0.0000000e+00 
6.5133333e+00 6.0300000e+00 0.0000000e+00 
6.5400000e+00 5.9700000e+00 0.0000000e+00 
6.5400000e+00 5.9900000e+00 0.0000000e+00 
6.5400000e+00 6.0100000e+00 0.0000000e+00 
6.5400000e+00 6.0300000e+00 0.0000000e+00 
6.5666667e+00 5.9700000e+00 0.0000000e+00 
6.5666667e+00 5.9900000e+00 0.0000000e+00 
6.5666667e+00 6.0100000e+00 0.0000000e+00 
6.5666667e+00 6.0300000e+00 0.0000000e+00 
6.5933333e+00 5.9700000e+00 0.0000000e+00 
6.5933333e+00 5.9900000e+00 0.0000000e+00 
6.5933333e+00 6.0100000e+00 0.0000000e+00 
6.5933333e+00 6.0300000e+00 0.0000000e+00 
6.6200000e+00 5.9700000e+00 0.0000000e+00 
6.6200000e+00 5.9900000e+00 0.0000000e+00 
6.6200000e+00 6.0100000e+00 0.0000000e+00 
6.6200000e+00 6.0300000e+00 0.0000000e+00 
6.6466667e+00 5.9700000e+00 0.0000000e+00 
6.6466667e+00 5.9900000e+00 0.0000000e+00 
6.6466667e+00 6.0100000e+00 0.0000000e+00 
6.6466667e+00 6.0300000e+00 0.0000000e+00 
6.6733333e+00 5.9700000e+00 0.0000000e+00 
6.6733333e+00 5.9900000e+00 0.0000000e+00 
6.6733333e+00 6.0100000e+00 0.0000000e+00 
6.6733333e+00 6.0300000e+00 0.0000000e+00 
6.7000000e+00 5.9700000e+00 0.0000000e+00 
6.7000000e+00 5.9900000e+00 0.0000000e+00 
6.7000000e+00 6.0100000e+00 0.0000000e+00 
6.7000000e+00 6.0300000e+00 0.0000000e+00 
6.7266667e+00 5.9700000e+00 0.0000000e+00 
6.7266667e+00 5.9900000e+00 0.0000000e+00 
6.7266667e+00 6.0100000e+00 0.0000000e+00 
6.7266667e+00 6.0300000e+00 0.0000000e+00 
6.7533333e+00 5.9700000e+00 0.0000000e+00 
6.7533333e+00 5.9900000e+00 0.0000000e+00 
6.7533333e+00 6.0100000e+00 0.0000000e+00 
6.7533333e+00 6.0300000e+00 0.0000000e+00 
6.7800000e+00 5.9700000e+00 0.0000000e+00 
6.7800000e+00 5.9900000e+00 0.0000000e+00 
6.7800000e+00 6.0100000e+00 0.0000000e+00 
6.7800000e+00 6.0300000e+00 0.0000000e+00 
6.8066667e+00 5.9700000e+00 0.0000000e+00 
6.8066667e+00 5.9900000e+00 0.0000000e+00 
6.8066667e+00 6.0100000e+00 0.0000000e+00 
6.8066667e+00 6.0300000e+00 0.0000000e+00 
6.8333333e+00 5.9700000e+00 0.0000000e+00 
6.8333333e+00 5.9900000e+00 0.0000000e+00 
6.8333333e+00 6.0100000e+00 0.0000000e+00 
6.8333333e+00 6.0300000e+00 0.0000000e+00 
6.8600000e+00 5.9700000e+00 0.0000000e+00 
6.8600000e+00 5.9900000e+00 0.0000000e+00 
6.8600000e+00 6.0100000e+00 0.0000000e+00 
6.8600000e+00 6.0300000e+00 0.0000000e+00 
6.8866667e+00 5.9700000e+00 0.0000000e+00 
6.8866667e+00 5.9900000e+00 0.0000000e+00 
6.8866667e+00 6.0100000e+00 0.0000000e+00 
6.8866667e+00 6.0300000e+00 0.0000000e+00 
6.9133333e+00 5.9700000e+00 0.0000000e+00 
6.9133333e+00 5.9900000e+00 0.0000000e+00 
6.9133333e+00 6.0100000e+00 0.0000000e+00 
6.9133333e+00 6.0300000e+00 0.0000000e+00 
6.9400000e+00 5.9700000e+00 0.0000000e+00 
6.9400000e+00 5.9900000e+00 0.0000000e+00 
6.9400000e+00 6.0100000e+00 0.0000000e+00 
6.9400000e+00 6.0300000e+00 0.0000000e+00 
6.9666667e+00 5.9700000e+00 0.0000000e+00 
6.9666667e+00 5.9900000e+00 0.0000000e+00 
6.9666667e+00 6.0100000e+00 0.0000000e+00 
6.9666667e+00 6.0300000e+00 0.0000000e+00 
6.9933333e+00 5.9700000e+00 0.0000000e+00 
6.9933333e+00 5.9900000e+00 0.0000000e+00 
6.9933333e+00 6.0100000e+00 0.0000000e+00 
6.9933333e+00 6.0300000e+00 0.0000000e+00 
7.0200000e+00 5.9700000e+00 0.0000000e+00 
7.0200000e+00 5.9900000e+00 0.0000000e+00 
[...]
POINT_DATA 604
FIELD FieldData 2
DISPLACEMENT 3 604  float
0.0000000e+00 0.0000000e+00 0.0000000e+00 
0.0000000e+00 0.0000000e+00 0.0000000e+00 
1.2443619e-05 8.0026843e-06 0.0000000e+00 
4.1276805e-06 5.3633078e-06 0.0000000e+00 
0.0000000e+00 0.0000000e+00 0.0000000e+00 
-3.4976427e-06 5.3375208e-06 0.0000000e+00 
2.4603376e-05 2.3875443e-05 0.0000000e+00 
8.4485728e-06 2.2308699e-05 0.0000000e+00 
0.0000000e+00 0.0000000e+00 0.0000000e+00 
-1.2017420e-05 7.7330784e-06 0.0000000e+00 
-7.5011071e-06 2.2582876e-05 0.0000000e+00 
3.6053802e-05 5.1733350e-05 0.0000000e+00 
-2.3688626e-05 2.5004723e-05 0.0000000e+00 
1.2347803e-05 4.9652268e-05 0.0000000e+00 
-1.1057815e-05 4.9670457e-05 0.0000000e+00 
-3.4757072e-05 5.1416027e-05 0.0000000e+00 
4.6828064e-05 8.7882810e-05 0.0000000e+00 
1.6049580e-05 8.6488695e-05 0.0000000e+00 
-1.4425807e-05 8.6715563e-05 0.0000000e+00 
-4.5187099e-05 8.8933448e-05 0.0000000e+00 
5.6883250e-05 1.3452197e-04 0.0000000e+00 
1.9530545e-05 1.3265989e-04 0.0000000e+00 
-1.7578116e-05 1.3262158e-04 0.0000000e+00 
-5.4989914e-05 1.3411994e-04 0.0000000e+00 
6.6275076e-05 1.8829992e-04 0.0000000e+00 
2.2791530e-05 1.8707062e-04 0.0000000e+00 
-2.0518073e-05 1.8737358e-04 0.0000000e+00 
-6.4222032e-05 1.8930682e-04 0.0000000e+00 
7.5100579e-05 2.5074610e-04 0.0000000e+00 
2.5604894e-05 2.4961910e-04 0.0000000e+00 
-2.3495595e-05 2.4990835e-04 0.0000000e+00 
-7.2741265e-05 2.5172557e-04 0.0000000e+00 
8.3160912e-05 3.2131615e-04 0.0000000e+00 
2.8410306e-05 3.1974064e-04 0.0000000e+00 
-2.6072548e-05 3.1967026e-04 0.0000000e+00 
-8.0777979e-05 3.2080873e-04 0.0000000e+00 
9.0711653e-05 3.9736126e-04 0.0000000e+00 
3.0965250e-05 3.9646072e-04 0.0000000e+00 
-2.8498599e-05 3.9663776e-04 0.0000000e+00 
-8.8225589e-05 3.9827061e-04 0.0000000e+00 
9.7599682e-05 4.8119229e-04 0.0000000e+00 
3.3299459e-05 4.7978544e-04 0.0000000e+00 
-3.0773081e-05 4.7972830e-04 0.0000000e+00 
-9.5081414e-05 4.8062963e-04 0.0000000e+00 
1.0397129e-04 5.6946739e-04 0.0000000e+00 
3.5401510e-05 5.6875543e-04 0.0000000e+00 
-3.2883021e-05 5.6891435e-04 0.0000000e+00 
-1.0141846e-04 5.7033481e-04 0.0000000e+00 
1.0966251e-04 6.6454054e-04 0.0000000e+00 
3.7303929e-05 6.6330510e-04 0.0000000e+00 
-3.4836681e-05 6.6322668e-04 0.0000000e+00 
-1.0719994e-04 6.6390757e-04 0.0000000e+00 
1.1487102e-04 7.6303140e-04 0.0000000e+00 
3.8977985e-05 7.6250017e-04 0.0000000e+00 
-3.6630435e-05 7.6264222e-04 0.0000000e+00 
-1.1248343e-04 7.6385400e-04 0.0000000e+00 
1.1940306e-04 8.6736474e-04 0.0000000e+00 
4.0459962e-05 8.6629894e-04 0.0000000e+00 
-3.8273974e-05 8.6620250e-04 0.0000000e+00 
-1.1722041e-04 8.6667241e-04 0.0000000e+00 
1.2347980e-04 9.7412347e-04 0.0000000e+00 
4.1717405e-05 9.7377213e-04 0.0000000e+00 
-3.9759837e-05 9.7390141e-04 0.0000000e+00 
-1.2147751e-04 9.7491275e-04 0.0000000e+00 
1.2688188e-04 1.0857942e-03 0.0000000e+00 
4.2790249e-05 1.0848984e-03 0.0000000e+00 
-4.1098559e-05 1.0847882e-03 0.0000000e+00 
-1.2519185e-04 1.0850556e-03 0.0000000e+00 
1.2985089e-04 1.1989186e-03 0.0000000e+00 
4.3642241e-05 1.1987484e-03 0.0000000e+00 
-4.2279119e-05 1.1988698e-03 0.0000000e+00 
-1.2843906e-04 1.1996880e-03 0.0000000e+00 
1.3214542e-04 1.3160395e-03 0.0000000e+00 
4.4315553e-05 1.3153174e-03 0.0000000e+00 
-4.3313746e-05 1.3151986e-03 0.0000000e+00 
-1.3114029e-04 1.3152720e-03 0.0000000e+00 
1.3402565e-04 1.4336642e-03 0.0000000e+00 
4.4771597e-05 1.4336726e-03 0.0000000e+00 
-4.4186533e-05 1.4337891e-03 0.0000000e+00 
-1.3337924e-04 1.4344142e-03 0.0000000e+00 
1.3520302e-04 1.5543718e-03 0.0000000e+00 
4.5068863e-05 1.5538383e-03 0.0000000e+00 
-4.4896545e-05 1.5536751e-03 0.0000000e+00 
-1.3508843e-04 1.5535703e-03 0.0000000e+00 
1.3592551e-04 1.6746055e-03 0.0000000e+00 
4.5177156e-05 1.6747581e-03 0.0000000e+00 
-4.5425376e-05 1.6749846e-03 0.0000000e+00 
-1.3638119e-04 1.6753861e-03 0.0000000e+00 
1.3614907e-04 1.7962562e-03 0.0000000e+00 
4.4854504e-05 1.7965173e-03 0.0000000e+00 
-4.6032976e-05 1.7967400e-03 0.0000000e+00 
-1.3702520e-04 1.7970501e-03 0.0000000e+00 
1.3563836e-04 1.9188434e-03 0.0000000e+00 
4.4585172e-05 1.9185935e-03 0.0000000e+00 
-4.6236373e-05 1.9184409e-03 0.0000000e+00 
-1.3722804e-04 1.9180610e-03 0.0000000e+00 
1.3476228e-04 2.0395029e-03 0.0000000e+00 
4.4084459e-05 2.0400098e-03 0.0000000e+00 
-4.6284258e-05 2.0401452e-03 0.0000000e+00 
-1.3691216e-04 2.0403194e-03 0.0000000e+00 
1.3319306e-04 2.1609321e-03 0.0000000e+00 
4.3401189e-05 2.1608771e-03 0.0000000e+00 
-4.6180910e-05 2.1607762e-03 0.0000000e+00 
-1.3596668e-04 2.1602054e-03 0.0000000e+00 
1.3120678e-04 2.2794566e-03 0.0000000e+00 
4.2497429e-05 2.2801867e-03 0.0000000e+00 
-4.5884476e-05 2.2803404e-03 0.0000000e+00 
-1.3453211e-04 2.2803386e-03 0.0000000e+00 
1.2847910e-04 2.3977680e-03 0.0000000e+00 
4.1422577e-05 2.3979318e-03 0.0000000e+00 
-4.5412384e-05 2.3978499e-03 0.0000000e+00 
-1.3245796e-04 2.3970955e-03 0.0000000e+00 
1.2532076e-04 2.5121318e-03 0.0000000e+00 
4.0122097e-05 2.5130942e-03 0.0000000e+00 
-4.4732868e-05 2.5132706e-03 0.0000000e+00 
-1.2986713e-04 2.5130838e-03 0.0000000e+00 
1.2139081e-04 2.6252477e-03 0.0000000e+00 
3.8645292e-05 2.6256476e-03 0.0000000e+00 
-4.3865621e-05 2.6255910e-03 0.0000000e+00 
-1.2659827e-04 2.6246498e-03 0.0000000e+00 
1.1700765e-04 2.7333317e-03 0.0000000e+00 
3.6935121e-05 2.7345426e-03 0.0000000e+00 
-4.2775452e-05 2.7347475e-03 0.0000000e+00 
-1.2278141e-04 2.7343699e-03 0.0000000e+00 
1.1181670e-04 2.8390732e-03 0.0000000e+00 
3.5041589e-05 2.8397273e-03 0.0000000e+00 
-4.1483432e-05 2.8397012e-03 0.0000000e+00 
-1.1824404e-04 2.8385668e-03 0.0000000e+00 
1.0614330e-04 2.9386395e-03 0.0000000e+00 
3.2904716e-05 2.9401161e-03 0.0000000e+00 
-3.9951810e-05 2.9403543e-03 0.0000000e+00 
-1.1312212e-04 2.9397774e-03 0.0000000e+00 
9.9621680e-05 3.0346991e-03 0.0000000e+00 
3.0574378e-05 3.0356264e-03 0.0000000e+00 
-3.8203791e-05 3.0356352e-03 0.0000000e+00 
-1.0723232e-04 3.0342991e-03 0.0000000e+00 
9.2584172e-05 3.1233802e-03 0.0000000e+00 
2.7988738e-05 3.1251342e-03 0.0000000e+00 
-3.6198228e-05 3.1254069e-03 0.0000000e+00 
-1.0071493e-04 3.1246130e-03 0.0000000e+00 
8.4627133e-05 3.2073109e-03 0.0000000e+00 
2.5212478e-05 3.2085392e-03 0.0000000e+00 
-3.3944867e-05 3.2085428e-03 0.0000000e+00 
-9.3405356e-05 3.2070013e-03 0.0000000e+00 
7.6056664e-05 3.2825488e-03 0.0000000e+00 
2.2196246e-05 3.2845546e-03 0.0000000e+00 
-3.1405488e-05 3.2849747e-03 0.0000000e+00 
-8.5469092e-05 3.2839175e-03 0.0000000e+00 
6.6752206e-05 3.3509447e-03 0.0000000e+00 
1.8681810e-05 3.3531176e-03 0.0000000e+00 
-2.8838600e-05 3.3535482e-03 0.0000000e+00 
-7.6594946e-05 3.3523612e-03 0.0000000e+00 
5.6435875e-05 3.4117456e-03 0.0000000e+00 
1.5160059e-05 3.4134485e-03 0.0000000e+00 
-2.5754167e-05 3.4135095e-03 0.0000000e+00 
-6.6956247e-05 3.4116039e-03 0.0000000e+00 
4.5489837e-05 3.4617280e-03 0.0000000e+00 
1.1317996e-05 3.4642739e-03 0.0000000e+00 
-2.2384699e-05 3.4646344e-03 0.0000000e+00 
-5.6501894e-05 3.4632226e-03 0.0000000e+00 
3.3508705e-05 3.5034129e-03 0.0000000e+00 
7.2023082e-06 3.5054464e-03 0.0000000e+00 
-1.8748330e-05 3.5055770e-03 0.0000000e+00 
-4.5042405e-05 3.5033848e-03 0.0000000e+00 
2.0793660e-05 3.5327383e-03 0.0000000e+00 
2.7551070e-06 3.5356330e-03 0.0000000e+00 
-1.4785706e-05 3.5360192e-03 0.0000000e+00 
-3.2765202e-05 3.5343170e-03 0.0000000e+00 
6.9559905e-06 3.5521404e-03 0.0000000e+00 
-1.9771531e-06 3.5545247e-03 0.0000000e+00 
-1.0529444e-05 3.5546752e-03 0.0000000e+00 
-1.9450806e-05 3.5521741e-03 0.0000000e+00 
-7.6812874e-06 3.5575130e-03 0.0000000e+00 
-7.0681552e-06 3.5607571e-03 0.0000000e+00 
-5.9343336e-06 3.5611536e-03 0.0000000e+00 
-5.2685141e-06 3.5591216e-03 0.0000000e+00 
-2.3507506e-05 3.5512257e-03 0.0000000e+00 
-1.2474285e-05 3.5539656e-03 0.0000000e+00 
-1.0379132e-06 3.5541191e-03 0.0000000e+00 
1.0001830e-05 3.5512728e-03 0.0000000e+00 
-4.0205338e-05 3.5291468e-03 0.0000000e+00 
-1.8271148e-05 3.5327388e-03 0.0000000e+00 
4.2043939e-06 3.5331249e-03 0.0000000e+00 
2.6182335e-05 3.5307223e-03 0.0000000e+00 
-5.8161723e-05 3.4935656e-03 0.0000000e+00 
-2.4417326e-05 3.4966563e-03 0.0000000e+00 
9.7503043e-06 3.4967878e-03 0.0000000e+00 
4.3493584e-05 3.4935520e-03 0.0000000e+00 
-7.7065620e-05 3.4403342e-03 0.0000000e+00 
-3.0991081e-05 3.4442625e-03 0.0000000e+00 
1.5642373e-05 3.4446086e-03 0.0000000e+00 
6.1748871e-05 3.4417869e-03 0.0000000e+00 
-9.7299140e-05 3.3716567e-03 0.0000000e+00 
-3.7954152e-05 3.3750830e-03 0.0000000e+00 
2.1832111e-05 3.3751578e-03 0.0000000e+00 
8.1168190e-05 3.3714803e-03 0.0000000e+00 
-1.1855717e-04 3.2833875e-03 0.0000000e+00 
-4.5387093e-05 3.2876237e-03 0.0000000e+00 
2.8360318e-05 3.2878875e-03 0.0000000e+00 
1.0155614e-04 3.2845836e-03 0.0000000e+00 
-1.4124318e-04 3.1776362e-03 0.0000000e+00 
-5.3240491e-05 3.1813766e-03 0.0000000e+00 
3.5186047e-05 3.1813087e-03 0.0000000e+00 
1.2310409e-04 3.1771353e-03 0.0000000e+00 
-1.6508948e-04 3.0502324e-03 0.0000000e+00 
-6.1585451e-05 3.0547012e-03 0.0000000e+00 
4.2342160e-05 3.0549348e-03 0.0000000e+00 
1.4558819e-04 3.0510527e-03 0.0000000e+00 
-1.9022208e-04 2.9025244e-03 0.0000000e+00 
-7.0677619e-05 2.9071201e-03 0.0000000e+00 
4.9551543e-05 2.9072574e-03 0.0000000e+00 
1.6931483e-04 2.9030601e-03 0.0000000e+00 
-2.1690769e-04 2.7333547e-03 0.0000000e+00 
-8.0077823e-05 2.7374692e-03 0.0000000e+00 
5.7254540e-05 2.7371291e-03 0.0000000e+00 
1.9408640e-04 2.7320451e-03 0.0000000e+00 
-2.4482789e-04 2.5393296e-03 0.0000000e+00 
-9.0102092e-05 2.5441531e-03 0.0000000e+00 
6.5211362e-05 2.5439466e-03 0.0000000e+00 
2.1988418e-04 2.5391101e-03 0.0000000e+00 
-2.7434445e-04 2.3223505e-03 0.0000000e+00 
-1.0072991e-04 2.3266199e-03 0.0000000e+00 
7.3357920e-05 2.3260316e-03 0.0000000e+00 
2.4689105e-04 2.3202113e-03 0.0000000e+00 
-3.0522908e-04 2.0783120e-03 0.0000000e+00 
-1.1204132e-04 2.0832470e-03 0.0000000e+00 
8.1730602e-05 2.0827036e-03 0.0000000e+00 
2.7484082e-04 2.0770878e-03 0.0000000e+00 
-3.3781486e-04 1.8090096e-03 0.0000000e+00 
-1.2401824e-04 1.8133463e-03 0.0000000e+00 
9.0244863e-05 1.8123679e-03 0.0000000e+00 
3.0393210e-04 1.8057070e-03 0.0000000e+00 
-3.7186409e-04 1.5103772e-03 0.0000000e+00 
-1.3675793e-04 1.5153085e-03 0.0000000e+00 
9.8916723e-05 1.5143114e-03 0.0000000e+00 
3.3390685e-04 1.5077914e-03 0.0000000e+00 
-4.0769756e-04 1.1841401e-03 0.0000000e+00 
-1.5024890e-04 1.1884223e-03 0.0000000e+00 
1.0764943e-04 1.1869280e-03 0.0000000e+00 
3.6495224e-04 1.1792984e-03 0.0000000e+00 
-4.4509361e-04 8.2629555e-04 0.0000000e+00 
-1.6459278e-04 8.3108676e-04 0.0000000e+00 
1.1645206e-04 8.2949934e-04 0.0000000e+00 
3.9679201e-04 8.2193732e-04 0.0000000e+00 
-4.8435971e-04 4.3850038e-04 0.0000000e+00 
-1.7978395e-04 4.4257814e-04 0.0000000e+00 
1.2521565e-04 4.4041927e-04 0.0000000e+00 
4.2960292e-04 4.3167394e-04 0.0000000e+00 
-5.2528982e-04 1.6828785e-05 0.0000000e+00 
-1.9592934e-04 2.1315180e-05 0.0000000e+00 
1.3394158e-04 1.8977124e-05 0.0000000e+00 
4.6308989e-04 1.0216525e-05 0.0000000e+00 
-5.6817763e-04 -4.3712146e-04 0.0000000e+00 
-2.1302996e-04 -4.3342622e-04 0.0000000e+00 
1.4250741e-04 -4.3642214e-04 0.0000000e+00 
4.9741995e-04 -4.4644889e-04 0.0000000e+00 
-6.1283119e-04 -9.2717782e-04 0.0000000e+00 
-2.3119772e-04 -9.2319425e-04 0.0000000e+00 
1.5090784e-04 -9.2646964e-04 0.0000000e+00 
5.3227910e-04 -9.3661027e-04 0.0000000e+00 
-6.5955504e-04 -1.4517974e-03 0.0000000e+00 
-2.5042690e-04 -1.4486872e-03 0.0000000e+00 
1.5901837e-04 -1.4527519e-03 0.0000000e+00 
5.6780224e-04 -1.4642377e-03 0.0000000e+00 
-7.0819770e-04 -2.0147308e-03 0.0000000e+00 
-2.7082855e-04 -2.0115037e-03 0.0000000e+00 
1.6682761e-04 -2.0158353e-03 0.0000000e+00 
6.0363900e-04 -2.0275800e-03 0.0000000e+00 
-7.5883377e-04 -2.6150480e-03 0.0000000e+00 
-2.9265222e-04 -2.6122709e-03 0.0000000e+00 
1.7398143e-04 -2.6172601e-03 0.0000000e+00 
6.4000798e-04 -2.6298863e-03 0.0000000e+00 
-8.1167171e-04 -3.2538846e-03 0.0000000e+00 
-3.1556485e-04 -3.2521208e-03 0.0000000e+00 
1.8081614e-04 -3.2581637e-03 0.0000000e+00 
6.7658718e-04 -3.2722425e-03 0.0000000e+00 
-8.6649144e-04 -3.9341097e-03 0.0000000e+00 
-3.3987614e-04 -3.9324301e-03 0.0000000e+00 
1.8704197e-04 -3.9390210e-03 0.0000000e+00 
7.1320283e-04 -3.9534986e-03 0.0000000e+00 
-9.2354779e-04 -4.6542216e-03 0.0000000e+00 
-3.6561374e-04 -4.6537162e-03 0.0000000e+00 
1.9249991e-04 -4.6613588e-03 0.0000000e+00 
7.4997236e-04 -4.6774551e-03 0.0000000e+00 
-9.8273155e-04 -5.4175749e-03 0.0000000e+00 
-3.9289536e-04 -5.4173064e-03 0.0000000e+00 
1.9717338e-04 -5.4256709e-03 0.0000000e+00 
7.8648291e-04 -5.4422822e-03 0.0000000e+00 
-1.0442721e-03 -6.2227105e-03 0.0000000e+00 
-4.2174872e-04 -6.2237603e-03 0.0000000e+00 
2.0088011e-04 -6.2333152e-03 0.0000000e+00 
8.2286794e-04 -6.2516728e-03 0.0000000e+00 
-1.1080512e-03 -7.0728361e-03 0.0000000e+00 
-4.5230787e-04 -7.0743018e-03 0.0000000e+00 
2.0358621e-04 -7.0847300e-03 0.0000000e+00 
8.5871831e-04 -7.1037394e-03 0.0000000e+00 
-1.1742862e-03 -7.9664944e-03 0.0000000e+00 
-4.8460595e-04 -7.9694282e-03 0.0000000e+00 
2.0509636e-04 -7.9811926e-03 0.0000000e+00 
8.9415972e-04 -8.0020767e-03 0.0000000e+00 
-1.2428715e-03 -8.9067239e-03 0.0000000e+00 
-5.1878014e-04 -8.9102639e-03 0.0000000e+00 
2.0537321e-04 -8.9230615e-03 0.0000000e+00 
9.2876462e-04 -8.9447425e-03 0.0000000e+00 
-1.3140126e-03 -9.8920662e-03 0.0000000e+00 
-5.5486693e-04 -9.8972336e-03 0.0000000e+00 
2.0421068e-04 -9.9115210e-03 0.0000000e+00 
9.6265434e-04 -9.9352094e-03 0.0000000e+00 
-1.3876140e-03 -1.0925381e-02 0.0000000e+00 
-5.9300620e-04 -1.0931353e-02 0.0000000e+00 
2.0156904e-04 -1.0946840e-02 0.0000000e+00 
9.9538523e-04 -1.0971477e-02 0.0000000e+00 
-1.4638693e-03 -1.2005200e-02 0.0000000e+00 
-6.3323699e-04 -1.2012965e-02 0.0000000e+00 
1.9723246e-04 -1.2030101e-02 0.0000000e+00 
1.0270771e-03 -1.2056880e-02 0.0000000e+00 
-1.5426897e-03 -1.3134188e-02 0.0000000e+00 
-6.7570009e-04 -1.3142968e-02 0.0000000e+00 
1.9116143e-04 -1.3161476e-02 0.0000000e+00 
1.0572725e-03 -1.3189363e-02 0.0000000e+00 
-1.6242762e-03 -1.4310866e-02 0.0000000e+00 
-7.2042455e-04 -1.4321602e-02 0.0000000e+00 
1.8314077e-04 -1.4341947e-02 0.0000000e+00 
1.0860744e-03 -1.4372100e-02 0.0000000e+00 
-1.7085665e-03 -1.5537726e-02 0.0000000e+00 
-7.6754930e-04 -1.5549715e-02 0.0000000e+00 
1.7313783e-04 -1.5571510e-02 0.0000000e+00 
1.1130003e-03 -1.5602963e-02 0.0000000e+00 
-1.7955913e-03 -1.6813706e-02 0.0000000e+00 
-8.1729021e-04 -1.6827428e-02 0.0000000e+00 
1.6075099e-04 -1.6851017e-02 0.0000000e+00 
1.1382112e-03 -1.6884373e-02 0.0000000e+00 
-1.8854840e-03 -1.8139253e-02 0.0000000e+00 
-8.6942287e-04 -1.8155178e-02 0.0000000e+00 
1.4620958e-04 -1.8180927e-02 0.0000000e+00 
1.1613063e-03 -1.8216684e-02 0.0000000e+00 
-1.9780769e-03 -1.9515956e-02 0.0000000e+00 
-9.2420957e-04 -1.9533439e-02 0.0000000e+00 
1.2923221e-04 -1.9560962e-02 0.0000000e+00 
1.1819812e-03 -1.9598213e-02 0.0000000e+00 
-2.0735337e-03 -2.0942201e-02 0.0000000e+00 
-9.8168790e-04 -2.0962072e-02 0.0000000e+00 
1.0960132e-04 -2.0991794e-02 0.0000000e+00 
1.2003517e-03 -2.1031619e-02 0.0000000e+00 
-2.1717859e-03 -2.2419842e-02 0.0000000e+00 
-1.0419785e-03 -2.2441457e-02 0.0000000e+00 
8.7302881e-05 -2.2473140e-02 0.0000000e+00 
1.2159138e-03 -2.2514590e-02 0.0000000e+00 
-2.2729790e-03 -2.3947254e-02 0.0000000e+00 
-1.1051046e-03 -2.3971420e-02 0.0000000e+00 
6.2111124e-05 -2.4005447e-02 0.0000000e+00 
1.2288137e-03 -2.4049587e-02 0.0000000e+00 
-2.3770200e-03 -2.5526092e-02 0.0000000e+00 
-1.1711908e-03 -2.5552187e-02 0.0000000e+00 
3.4010408e-05 -2.5588325e-02 0.0000000e+00 
1.2385648e-03 -2.5634224e-02 0.0000000e+00 
-2.4840436e-03 -2.7154677e-02 0.0000000e+00 
-1.2402527e-03 -2.7183470e-02 0.0000000e+00 
2.7778375e-06 -2.7222085e-02 0.0000000e+00 
1.2453244e-03 -2.7270774e-02 0.0000000e+00 
-2.5939493e-03 -2.8834456e-02 0.0000000e+00 
-1.3124065e-03 -2.8865353e-02 0.0000000e+00 
-3.1591057e-05 -2.8906217e-02 0.0000000e+00 
1.2486059e-03 -2.8956784e-02 0.0000000e+00 
-2.7068608e-03 -3.0563700e-02 0.0000000e+00 
-1.3876575e-03 -3.0597429e-02 0.0000000e+00 
-6.9312737e-05 -3.0640888e-02 0.0000000e+00 
1.2485818e-03 -3.0694330e-02 0.0000000e+00 
-2.8226669e-03 -3.2343649e-02 0.0000000e+00 
-1.4661118e-03 -3.2379639e-02 0.0000000e+00 
-1.1037865e-04 -3.2425469e-02 0.0000000e+00 
1.2447687e-03 -3.2480894e-02 0.0000000e+00 
-2.9414797e-03 -3.4172518e-02 0.0000000e+00 
-1.5477627e-03 -3.4211458e-02 0.0000000e+00 
-1.5499686e-04 -3.4259985e-02 0.0000000e+00 
1.2373583e-03 -3.4318352e-02 0.0000000e+00 
-3.0631740e-03 -3.6051340e-02 0.0000000e+00 
-1.6327044e-03 -3.6092683e-02 0.0000000e+00 
-2.0314293e-04 -3.6143685e-02 0.0000000e+00 
1.2258728e-03 -3.6204126e-02 0.0000000e+00 
-3.1878638e-03 -3.7978275e-02 0.0000000e+00 
-1.7209088e-03 -3.8022661e-02 0.0000000e+00 
-2.5500863e-04 -3.8076459e-02 0.0000000e+00 
1.2105126e-03 -3.8139879e-02 0.0000000e+00 
-3.3154261e-03 -3.9954175e-02 0.0000000e+00 
-1.8124557e-03 -4.0001100e-02 0.0000000e+00 
-3.1054801e-04 -4.0057389e-02 0.0000000e+00 
1.1908020e-03 -4.0122977e-02 0.0000000e+00 
-3.4458447e-03 -4.1977444e-02 0.0000000e+00 
-1.9074393e-03 -4.2027211e-02 0.0000000e+00 
-3.7006169e-04 -4.2086202e-02 0.0000000e+00 
1.1669753e-03 -4.2154414e-02 0.0000000e+00 
-3.5791361e-03 -4.4047503e-02 0.0000000e+00 
-2.0056534e-03 -4.4100413e-02 0.0000000e+00 
-4.3333695e-04 -4.4162342e-02 0.0000000e+00 
1.1387354e-03 -4.4233493e-02 0.0000000e+00 
-3.7150665e-03 -4.6164478e-02 0.0000000e+00 
-2.1072247e-03 -4.6220052e-02 0.0000000e+00 
-5.0051032e-04 -4.6284591e-02 0.0000000e+00 
1.1058094e-03 -4.6357941e-02 0.0000000e+00 
-3.8537184e-03 -4.8326316e-02 0.0000000e+00 
-2.2120973e-03 -4.8385072e-02 0.0000000e+00 
-5.7172070e-04 -4.8452474e-02 0.0000000e+00 
1.0684458e-03 -4.8528784e-02 0.0000000e+00 
-3.9949139e-03 -5.0533297e-02 0.0000000e+00 
-2.3203036e-03 -5.0594745e-02 0.0000000e+00 
-6.4687075e-04 -5.0664789e-02 0.0000000e+00 
1.0262233e-03 -5.0743291e-02 0.0000000e+00 
-4.1387245e-03 -5.2783336e-02 0.0000000e+00 
-2.4317602e-03 -5.2847972e-02 0.0000000e+00 
-7.2608829e-04 -5.2920865e-02 0.0000000e+00 
9.7943098e-04 -5.3002285e-02 0.0000000e+00 
-4.2849379e-03 -5.5076564e-02 0.0000000e+00 
-2.5464917e-03 -5.5143900e-02 0.0000000e+00 
-8.0926422e-04 -5.5219419e-02 0.0000000e+00 
9.2768256e-04 -5.5303007e-02 0.0000000e+00 
-4.4336169e-03 -5.7410838e-02 0.0000000e+00 
-2.6643972e-03 -5.7481335e-02 0.0000000e+00 
-8.9650723e-04 -5.7559661e-02 0.0000000e+00 
8.7128998e-04 -5.7646092e-02 0.0000000e+00 
-4.5845299e-03 -5.9786141e-02 0.0000000e+00 
-2.7854851e-03 -5.9859316e-02 0.0000000e+00 
-9.8768847e-04 -5.9940224e-02 0.0000000e+00 
8.0988911e-04 -6.0028773e-02 0.0000000e+00 
-4.7377327e-03 -6.2200281e-02 0.0000000e+00 
-2.9096367e-03 -6.2276561e-02 0.0000000e+00 
-1.0828956e-03 -6.2360207e-02 0.0000000e+00 
7.4381531e-04 -6.2451499e-02 0.0000000e+00 
-4.8929741e-03 -6.4653108e-02 0.0000000e+00 
-3.0368448e-03 -6.4732014e-02 0.0000000e+00 
-1.1819807e-03 -6.4818170e-02 0.0000000e+00 
6.7272873e-04 -6.4911504e-02 0.0000000e+00 
-5.0503037e-03 -6.7142384e-02 0.0000000e+00 
-3.1669736e-03 -6.7224311e-02 0.0000000e+00 
-1.2850105e-03 -6.7313108e-02 0.0000000e+00 
5.9698796e-04 -6.7409059e-02 0.0000000e+00 
-5.2094517e-03 -6.9667837e-02 0.0000000e+00 
-3.3000010e-03 -6.9752310e-02 0.0000000e+00 
-1.3918178e-03 -6.9843520e-02 0.0000000e+00 
5.1627922e-04 -6.9941418e-02 0.0000000e+00 
-5.3704724e-03 -7.2227193e-02 0.0000000e+00 
-3.4357704e-03 -7.2314572e-02 0.0000000e+00 
-1.5024444e-03 -7.2408312e-02 0.0000000e+00 
4.3097327e-04 -7.2508667e-02 0.0000000e+00 
-5.5330937e-03 -7.4820086e-02 0.0000000e+00 
-3.5742427e-03 -7.4909918e-02 0.0000000e+00 
-1.6167079e-03 -7.5005902e-02 0.0000000e+00 
3.4078549e-04 -7.5108101e-02 0.0000000e+00 
-5.6972706e-03 -7.7444422e-02 0.0000000e+00 
-3.7153553e-03 -7.7536812e-02 0.0000000e+00 
-1.7346818e-03 -7.7635086e-02 0.0000000e+00 
2.4609258e-04 -7.7739350e-02 0.0000000e+00 
-5.8629391e-03 -8.0098874e-02 0.0000000e+00 