# vtk DataFile Version 4.0
vtk output
ASCII
DATASET UNSTRUCTURED_GRID
POINTS 604 float
5.5000000e+00 5.9700000e+00 0.0000000e+00 
5.5000000e+00 5.9900000e+00 0.0000000e+00 
5.5266667e+00 5.9700000e+00 0.0000000e+00 
5.5266667e+00 5.9900000e+00 0.0000000e+00 
5.5000000e+00 6.0100000e+00 0.0000000e+00 
5.5266667e+00 6.0100000e+00 0.0000000e+00 
5.5533333e+00 5.9700000e+00 0.0000000e+00 
5.5533333e+00 5.9900000e+00 0.0000000e+00 
5.5000000e+00 6.0300000e+00 0.0000000e+00 
5.5266667e+00 6.0300000e+00 0.0000000e+00 
5.5533333e+00 6.0100000e+00 0.0000000e+00 
5.5800000e+00 5.9700000e+00 0.0000000e+00 
5.5533333e+00 6.0300000e+00 0.0000000e+00 
5.5800000e+00 5.9900000e+00 0.0000000e+00 
5.5800000e+00 6.0100000e+00 0.0000000e+00 
5.5800000e+00 6.0300000e+00 0.0000000e+00 
5.6066667e+00 5.9700000e+00 0.0000000e+00 
5.6066667e+00 5.9900000e+00 0.0000000e+00 
5.6066667e+00 6.0100000e+00 0.0000000e+00 
5.6066667e+00 6.0300000e+00 0.0000000e+00 
5.6333333e+00 5.9700000e+00 0.0000000e+00 
5.6333333e+00 5.9900000e+00 0.0000000e+00 
5.6333333e+00 6.0100000e+00 0.0000000e+00 
5.6333333e+00 6.0300000e+00 0.0000000e+00 
5.6600000e+00 5.9700000e+00 0.0000000e+00 
5.6600000e+00 5.9900000e+00 0.0000000e+00 
5.6600000e+00 6.0100000e+00 0.0000000e+00 
5.6600000e+00 6.0300000e+00 0.0000000e+00 
5.6866667e+00 5.9700000e+00 0.0000000e+00 
5.6866667e+00 5.9900000e+00 0.0000000e+00 
5.6866667e+00 6.0100000e+00 0.0000000e+00 
5.6866667e+00 6.0300000e+00 0.0000000e+00 
5.7133333e+00 5.9700000e+00 0.0000000e+00 
5.7133333e+00 5.9900000e+00 0.0000000e+00 
5.7133333e+00 6.0100000e+00 0.0000000e+00 
5.7133333e+00 6.0300000e+00 0.0000000e+00 
5.7400000e+00 5.9700000e+00 0.0000000e+00 
5.7400000e+00 5.9900000e+00 0.0000000e+00 
5.7400000e+00 6.0100000e+00 0.0000000e+00 
5.7400000e+00 6.0300000e+00 0.0000000e+00 
5.7666667e+00 5.9700000e+00 0.0000000e+00 
5.7666667e+00 5.9900000e+00 0.0000000e+00 
5.7666667e+00 6.0100000e+00 0.0000000e+00 
5.7666667e+00 6.0300000e+00 0.0000000e+00 
5.7933333e+00 5.9700000e+00 0.0000000e+00 
5.7933333e+00 5.9900000e+00 0.0000000e+00 
5.7933333e+00 6.0100000e+00 0.0000000e+00 
5.7933333e+00 6.0300000e+00 0.0000000e+00 
5.8200000e+00 5.9700000e+00 0.0000000e+00 
5.8200000e+00 5.9900000e+00 0.0000000e+00 
5.8200000e+00 6.0100000e+00 0.0000000e+00 
5.8200000e+00 6.0300000e+00 0.0000000e+00 
5.8466667e+00 5.9700000e+00 0.0000000e+00 
5.8466667e+00 5.9900000e+00 0.0000000e+00 
5.8466667e+00 6.0100000e+00 0.0000000e+00 
5.8466667e+00 6.0300000e+00 0.0000000e+00 
5.8733333e+00 5.9700000e+00 0.0000000e+00 
5.8733333e+00 5.9900000e+00 0.0000000e+00 
5.8733333e+00 6.0100000e+00 0.0000000e+00 
5.8733333e+00 6.0300000e+00 0.0000000e+00 
5.9000000e+00 5.9700000e+00 0.0000000e+00 
5.9000000e+00 5.9900000e+00 0.0000000e+00 
5.9000000e+00 6.0100000e+00 0.0000000e+00 
5.9000000e+00 6.0300000e+00 0.0000000e+00 
5.9266667e+00 5.9700000e+00 0.0000000e+00 
5.9266667e+00 5.9900000e+00 0.0000000e+00 
5.9266667e+00 6.0100000e+00 0.0000000e+00 
5.9266667e+00 6.0300000e+00 0.0000000e+00 
5.9533333e+00 5.9700000e+00 0.0000000e+00 
5.9533333e+00 5.9900000e+00 0.0000000e+00 
5.9533333e+00 6.0100000e+00 0.0000000e+00 
5.9533333e+00 6.0300000e+00 0.0000000e+00 
5.9800000e+00 5.9700000e+00 0.0000000e+00 
5.9800000e+00 5.9900000e+00 0.0000000e+00 
5.9800000e+00 6.0100000e+00 0.0000000e+00 
5.9800000e+00 6.0300000e+00 0.0000000e+00 
6.0066667e+00 5.9700000e+00 0.0000000e+00 
6.0066667e+00 5.9900000e+00 0.0000000e+00 
6.0066667e+00 6.0100000e+00 0.0000000e+00 
6.0066667e+00 6.0300000e+00 0.0000000e+00 
6.0333333e+00 5.9700000e+00 0.0000000e+00 
6.0333333e+00 5.9900000e+00 0.0000000e+00 
6.0333333e+00 6.0100000e+00 0.0000000e+00 
6.0333333e+00 6.0300000e+00 0.0000000e+00 
6.0600000e+00 5.9700000e+00 0.0000000e+00 
6.0600000e+00 5.9900000e+00 0.0000000e+00 
6.0600000e+00 6.0100000e+00 0.0000000e+00 
6.0600000e+00 6.0300000e+00 0.0000000e+00 
6.0866667e+00 5.9700000e+00 0.0000000e+00 
6.0866667e+00 5.9900000e+00 0.0000000e+00 
6.0866667e+00 6.0100000e+00 0.0000000e+00 
6.0866667e+00 6.0300000e+00 0.0000000e+00 
6.1133333e+00 5.9700000e+00 0.0000000e+00 
6.1133333e+00 5.9900000e+00 0.0000000e+00 
6.1133333e+00 6.0100000e+00 0.0000000e+00 
6.1133333e+00 6.0300000e+00 0.0000000e+00 
6.1400000e+00 5.9700000e+00 0.0000000e+00 
6.1400000e+00 5.9900000e+00 0.0000000e+00 
6.1400000e+00 6.0100000e+00 0.0000000e+00 
6.1400000e+00 6.0300000e+00 0.0000000e+00 
6.1666667e+00 5.9700000e+00 0.0000000e+00 
6.1666667e+00 5.9900000e+00 0.0000000e+00 
6.1666667e+00 6.0100000e+00 0.0000000e+00 
6.1666667e+00 6.0300000e+00 0.0000000e+00 
6.1933333e+00 5.9700000e+00 0.0000000e+00 
6.1933333e+00 5.9900000e+00 0.0000000e+00 
6.1933333e+00 6.0100000e+00 0.0000000e+00 
6.1933333e+00 6.0300000e+00 0.0000000e+00 
6.2200000e+00 5.9700000e+00 0.0000000e+00 
6.2200000e+00 5.9900000e+00 0.0000000e+00 
6.2200000e+00 6.0100000e+00 0.0000000e+00 
6.2200000e+00 6.0300000e+00 0.0000000e+00 
6.2466667e+00 5.9700000e+00 0.0000000e+00 
6.2466667e+00 5.9900000e+00 0.0000000e+00 
6.2466667e+00 6.0100000e+00 0.0000000e+00 
6.2466667e+00 6.0300000e+00 0.0000000e+00 
6.2733333e+00 5.9700000e+00 0.0000000e+00 
6.2733333e+00 5.9900000e+00 0.0000000e+00 
6.2733333e+00 6.0100000e+00 0.0000000e+00 
6.2733333e+00 6.0300000e+00 0.0000000e+00 
6.3000000e+00 5.9700000e+00 0.0000000e+00 
6.3000000e+00 5.9900000e+00 0.0000000e+00 
6.3000000e+00 6.0100000e+00 0.0000000e+00 
6.3000000e+00 6.0300000e+00 0.0000000e+00 
6.3266667e+00 5.9700000e+00 0.0000000e+00 
6.3266667e+00 5.9900000e+00 0.0000000e+00 
6.3266667e+00 6.0100000e+00 0.0000000e+00 
6.3266667e+00 6.0300000e+00 0.0000000e+00 
6.3533333e+00 5.9700000e+00 0.0000000e+00 
6.3533333e+00 5.9900000e+00 0.0000000e+00 
6.3533333e+00 6.0100000e+00 0.0000000e+00 
6.3533333e+00 6.0300000e+00 0.0000000e+00 
6.3800000e+00 5.9700000e+00 0.0000000e+00 
6.3800000e+00 5.9900000e+00 0.0000000e+00 
6.3800000e+00 6.0100000e+00 0.0000000e+00 
6.3800000e+00 6.0300000e+00 0.0000000e+00 
6.4066667e+00 5.9700000e+00 0.0000000e+00 
6.4066667e+00 5.9900000e+00 0.0000000e+00 
6.4066667e+00 6.0100000e+00 0.0000000e+00 
6.4066667e+00 6.0300000e+00 0.0000000e+00 
6.4333333e+00 5.9700000e+00 0.0000000e+00 
6.4333333e+00 5.9900000e+00 0.0000000e+00 
6.4333333e+00 6.0100000e+00 0.0000000e+00 
6.4333333e+00 6.0300000e+00 0.0000000e+00 
6.4600000e+00 5.9700000e+00 0.0000000e+00 
6.4600000e+00 5.9900000e+00 0.0000000e+00 
6.4600000e+00 6.0100000e+00 0.0000000e+00 
6.4600000e+00 6.0300000e+00 0.0000000e+00 
6.4866667e+00 5.9700000e+00 0.0000000e+00 
6.4866667e+00 5.9900000e+00 0.0000000e+00 
6.4866667e+00 6.0100000e+00 0.0000000e+00 
6.4866667e+00 6.0300000e+00 0.0000000e+00 
6.5133333e+00 5.9700000e+00 0.0000000e+00 
6.5133333e+00 5.9900000e+00 0.0000000e+00 
6.5133333e+00 6.0100000e+00 0.0000000e+00 
6.5133333e+00 6.0300000e+00 0.0000000e+00 
6.5400000e+00 5.9700000e+00 0.0000000e+00 
6.5400000e+00 5.9900000e+00 0.0000000e+00 
6.5400000e+00 6.0100000e+00 0.0000000e+00 
6.5400000e+00 6.0300000e+00 0.0000000e+00 
6.5666667e+00 5.9700000e+00 0.0000000e+00 
6.5666667e+00 5.9900000e+00 0.0000000e+00 
6.5666667e+00 6.0100000e+00 0.0000000e+00 
6.5666667e+00 6.0300000e+00 0.0000000e+00 
6.5933333e+00 5.9700000e+00 0.0000000e+00 
6.5933333e+00 5.9900000e+00 0.0000000e+00 
6.5933333e+00 6.0100000e+00 0.0000000e+00 
6.5933333e+00 6.0300000e+00 0.0000000e+00 
6.6200000e+00 5.9700000e+00 0.0000000e+00 
6.6200000e+00 5.9900000e+00 0.0000000e+00 
6.6200000e+00 6.0100000e+00 0.0000000e+00 
6.6200000e+00 6.0300000e+00 0.0000000e+00 
6.6466667e+00 5.9700000e+00 0.0000000e+00 
6.6466667e+00 5.9900000e+00 0.0000000e+00 
6.6466667e+00 6.0100000e+00 0.0000000e+00 
6.6466667e+00 6.0300000e+00 0.0000000e+00 
6.6733333e+00 5.9700000e+00 0.0000000e+00 
6.6733333e+00 5.9900000e+00 0.0000000e+00 
6.6733333e+00 6.0100000e+00 0.0000000e+00 
6.6733333e+00 6.0300000e+00 0.0000000e+00 
6.7000000e+00 5.9700000e+00 0.0000000e+00 
6.7000000e+00 5.9900000e+00 0.0000000e+00 
6.7000000e+00 6.0100000e+00 0.0000000e+00 
6.7000000e+00 6.0300000e+00 0.0000000e+00 
6.7266667e+00 5.9700000e+00 0.0000000e+00 
6.7266667e+00 5.9900000e+00 0.0000000e+00 
6.7266667e+00 6.0100000e+00 0.0000000e+00 
6.7266667e+00 6.0300000e+00 0.0000000e+00 
6.7533333e+00 5.9700000e+00 0.0000000e+00 
6.7533333e+00 5.9900000e+00 0.0000000e+00 
6.7533333e+00 6.0100000e+00 0.0000000e+00 
6.7533333e+00 6.0300000e+00 0.0000000e+00 
6.7800000e+00 5.9700000e+00 0.0000000e+00 
6.7800000e+00 5.9900000e+00 0.0000000e+00 
6.7800000e+00 6.0100000e+00 0.0000000e+00 
6.7800000e+00 6.0300000e+00 0.0000000e+00 
6.8066667e+00 5.9700000e+00 0.0000000e+00 
6.8066667e+00 5.9900000e+00 0.0000000e+00 
6.8066667e+00 6.0100000e+00 0.0000000e+00 
6.8066667e+00 6.0300000e+00 0.0000000e+00 
6.8333333e+00 5.9700000e+00 0.0000000e+00 
6.8333333e+00 5.9900000e+00 0.0000000e+00 
6.8333333e+00 6.0100000e+00 0.0000000e+00 
6.8333333e+00 6.0300000e+00 0.0000000e+00 
6.8600000e+00 5.9700000e+00 0.0000000e+00 
6.8600000e+00 5.9900000e+00 0.0000000e+00 
6.8600000e+00 6.0100000e+00 0.0000000e+00 
6.8600000e+00 6.0300000e+00 0.0000000e+00 
6.8866667e+00 5.9700000e+00 0.0000000e+00 
6.8866667e+00 5.9900000e+00 0.0000000e+00 
6.8866667e+00 6.0100000e+00 0.0000000e+00 
6.8866667e+00 6.0300000e+00 0.0000000e+00 
6.9133333e+00 5.9700000e+00 0.0000000e+00 
6.9133333e+00 5.9900000e+00 0.0000000e+00 
6.9133333e+00 6.0100000e+00 0.0000000e+00 
6.9133333e+00 6.0300000e+00 0.0000000e+00 
6.9400000e+00 5.9700000e+00 0.0000000e+00 
6.9400000e+00 5.9900000e+00 0.0000000e+00 
6.9400000e+00 6.0100000e+00 0.0000000e+00 
6.9400000e+00 6.0300000e+00 0.0000000e+00 
6.9666667e+00 5.9700000e+00 0.0000000e+00 
6.9666667e+00 5.9900000e+00 0.0000000e+00 
6.9666667e+00 6.0100000e+00 0.0000000e+00 
6.9666667e+00 6.0300000e+00 0.0000000e+00 
6.9933333e+00 5.9700000e+00 0.0000000e+00 
6.9933333e+00 5.9900000e+00 0.0000000e+00 
6.9933333e+00 6.0100000e+00 0.0000000e+00 
6.9933333e+00 6.0300000e+00 0.0000000e+00 
7.0200000e+00 5.9700000e+00 0.0000000e+00 
7.0200000e+00 5.9900000e+00 0.0000000e+00 
[...]
POINT_DATA 604
FIELD FieldData 2
DISPLACEMENT 3 604  float
0.0000000e+00 0.0000000e+00 0.0000000e+00 
0.0000000e+00 0.0000000e+00 0.0000000e+00 
-3.3568121e-07 -2.0398507e-07 0.0000000e+00 
-1.0969654e-07 -1.3229252e-07 0.0000000e+00 
0.0000000e+00 0.0000000e+00 0.0000000e+00 
1.0254703e-07 -1.3255256e-07 0.0000000e+00 
-6.7661929e-07 -6.3638284e-07 0.0000000e+00 
-2.2795089e-07 -5.8833946e-07 0.0000000e+00 
0.0000000e+00 0.0000000e+00 0.0000000e+00 
3.3315498e-07 -2.0113947e-07 0.0000000e+00 
2.2046514e-07 -5.9491351e-07 0.0000000e+00 
-1.0109878e-06 -1.4045594e-06 0.0000000e+00 
6.6993630e-07 -6.6214839e-07 0.0000000e+00 
-3.3886708e-07 -1.3444622e-06 0.0000000e+00 
3.3004323e-07 -1.3459248e-06 0.0000000e+00 
1.0019332e-06 -1.4014831e-06 0.0000000e+00 
-1.3384038e-06 -2.4365052e-06 0.0000000e+00 
-4.4874080e-07 -2.3895019e-06 0.0000000e+00 
4.3807037e-07 -2.3953784e-06 0.0000000e+00 
1.3275979e-06 -2.4615912e-06 0.0000000e+00 
-1.6592091e-06 -3.7842726e-06 0.0000000e+00 
-5.5665585e-07 -3.7266388e-06 0.0000000e+00 
5.4361018e-07 -3.7273634e-06 0.0000000e+00 
1.6471760e-06 -3.7806699e-06 0.0000000e+00 
-1.9728228e-06 -5.3851136e-06 0.0000000e+00 
-6.6290352e-07 -5.3394961e-06 0.0000000e+00 
6.4660483e-07 -5.3471784e-06 0.0000000e+00 
1.9612651e-06 -5.4103553e-06 0.0000000e+00 
-2.2822986e-06 -7.2765625e-06 0.0000000e+00 
-7.6277406e-07 -7.2319308e-06 0.0000000e+00 
7.5181134e-07 -7.2396008e-06 0.0000000e+00 
2.2669096e-06 -7.3015780e-06 0.0000000e+00 
-2.5837457e-06 -9.4526969e-06 0.0000000e+00 
-8.6498941e-07 -9.3983818e-06 0.0000000e+00 
8.5050685e-07 -9.3990764e-06 0.0000000e+00 
2.5681709e-06 -9.4491374e-06 0.0000000e+00 
-2.8797357e-06 -1.1865734e-05 0.0000000e+00 
-9.6491740e-07 -1.1823939e-05 0.0000000e+00 
9.4738980e-07 -1.1829657e-05 0.0000000e+00 
2.8625730e-06 -1.1890174e-05 0.0000000e+00 
-3.1703072e-06 -1.4566087e-05 0.0000000e+00 
-1.0625912e-06 -1.4513761e-05 0.0000000e+00 
1.0424537e-06 -1.4515175e-05 0.0000000e+00 
3.1501700e-06 -1.4562945e-05 0.0000000e+00 
-3.4546736e-06 -1.7493225e-05 0.0000000e+00 
-1.1583759e-06 -1.7453539e-05 0.0000000e+00 
1.1353622e-06 -1.7459213e-05 0.0000000e+00 
3.4318453e-06 -1.7517595e-05 0.0000000e+00 
-3.7332786e-06 -2.0696595e-05 0.0000000e+00 
-1.2522012e-06 -2.0646399e-05 0.0000000e+00 
1.2262213e-06 -2.0647806e-05 0.0000000e+00 
3.7072462e-06 -2.0693495e-05 0.0000000e+00 
-4.0058352e-06 -2.4116269e-05 0.0000000e+00 
-1.3441698e-06 -2.4078567e-05 0.0000000e+00 
1.3149558e-06 -2.4084174e-05 0.0000000e+00 
3.9767615e-06 -2.4140365e-05 0.0000000e+00 
-4.2726970e-06 -2.7801217e-05 0.0000000e+00 
-1.4342016e-06 -2.7753139e-05 0.0000000e+00 
1.4016833e-06 -2.7754552e-05 0.0000000e+00 
4.2401285e-06 -2.7798215e-05 0.0000000e+00 
-4.5336440e-06 -3.1692279e-05 0.0000000e+00 
-1.5223877e-06 -3.1656553e-05 0.0000000e+00 
1.4863398e-06 -3.1662122e-05 0.0000000e+00 
4.4976723e-06 -3.1716179e-05 0.0000000e+00 
-4.7889257e-06 -3.5837866e-05 0.0000000e+00 
-1.6086686e-06 -3.5791882e-05 0.0000000e+00 
1.5690238e-06 -3.5793314e-05 0.0000000e+00 
4.7492344e-06 -3.5834995e-05 0.0000000e+00 
-5.0384365e-06 -4.0179494e-05 0.0000000e+00 
-1.6931064e-06 -4.0145745e-05 0.0000000e+00 
1.6496990e-06 -4.0151309e-05 0.0000000e+00 
4.9950269e-06 -4.0203301e-05 0.0000000e+00 
-5.2823093e-06 -4.4765134e-05 0.0000000e+00 
-1.7756599e-06 -4.4721229e-05 0.0000000e+00 
1.7284469e-06 -4.4722699e-05 0.0000000e+00 
5.2350079e-06 -4.4762454e-05 0.0000000e+00 
-5.5205945e-06 -4.9536973e-05 0.0000000e+00 
-1.8563746e-06 -4.9505115e-05 0.0000000e+00 
1.8052456e-06 -4.9510677e-05 0.0000000e+00 
5.4692290e-06 -4.9560585e-05 0.0000000e+00 
-5.7528501e-06 -5.4542523e-05 0.0000000e+00 
-1.9354750e-06 -5.4500827e-05 0.0000000e+00 
1.8799116e-06 -5.4501674e-05 0.0000000e+00 
5.6982228e-06 -5.4539700e-05 0.0000000e+00 
-5.9788811e-06 -5.9724010e-05 0.0000000e+00 
-2.0130612e-06 -5.9693414e-05 0.0000000e+00 
1.9523592e-06 -5.9700782e-05 0.0000000e+00 
5.9222785e-06 -5.9748032e-05 0.0000000e+00 
-6.2012101e-06 -6.5116331e-05 0.0000000e+00 
-2.0847545e-06 -6.5086746e-05 0.0000000e+00 
2.0270408e-06 -6.5094125e-05 0.0000000e+00 
6.1389626e-06 -6.5140459e-05 0.0000000e+00 
-6.4160629e-06 -7.0714578e-05 0.0000000e+00 
-2.1586739e-06 -7.0675892e-05 0.0000000e+00 
2.0958327e-06 -7.0676865e-05 0.0000000e+00 
6.3522234e-06 -7.0712133e-05 0.0000000e+00 
-6.6264422e-06 -7.6474115e-05 0.0000000e+00 
-2.2303912e-06 -7.6447279e-05 0.0000000e+00 
2.1632252e-06 -7.6453052e-05 0.0000000e+00 
6.5591354e-06 -7.6498359e-05 0.0000000e+00 
-6.8315924e-06 -8.2442975e-05 0.0000000e+00 
-2.3001023e-06 -8.2406087e-05 0.0000000e+00 
2.2290483e-06 -8.2407840e-05 0.0000000e+00 
6.7605530e-06 -8.2441149e-05 0.0000000e+00 
-7.0315891e-06 -8.8563823e-05 0.0000000e+00 
-2.3679540e-06 -8.8539100e-05 0.0000000e+00 
2.2931780e-06 -8.8545028e-05 0.0000000e+00 
6.9564638e-06 -8.8588722e-05 0.0000000e+00 
-7.2259824e-06 -9.4884741e-05 0.0000000e+00 
-2.4340648e-06 -9.4849778e-05 0.0000000e+00 
2.3555273e-06 -9.4851643e-05 0.0000000e+00 
7.1474181e-06 -9.4883177e-05 0.0000000e+00 
-7.4153689e-06 -1.0134793e-04 0.0000000e+00 
-2.4983257e-06 -1.0132523e-04 0.0000000e+00 
2.4162271e-06 -1.0133130e-04 0.0000000e+00 
7.3328762e-06 -1.0137334e-04 0.0000000e+00 
-7.5991929e-06 -1.0800209e-04 0.0000000e+00 
-2.5608601e-06 -1.0796904e-04 0.0000000e+00 
2.4751847e-06 -1.0797103e-04 0.0000000e+00 
7.5134967e-06 -1.0800083e-04 0.0000000e+00 
-7.7781129e-06 -1.1478903e-04 0.0000000e+00 
-2.6215502e-06 -1.1476834e-04 0.0000000e+00 
2.5325396e-06 -1.1477458e-04 0.0000000e+00 
7.6886741e-06 -1.1481502e-04 0.0000000e+00 
-7.9515070e-06 -1.2175803e-04 0.0000000e+00 
-2.6805379e-06 -1.2172686e-04 0.0000000e+00 
2.5881805e-06 -1.2172898e-04 0.0000000e+00 
7.8591346e-06 -1.2175708e-04 0.0000000e+00 
-8.1200947e-06 -1.2885039e-04 0.0000000e+00 
-2.7376900e-06 -1.2883170e-04 0.0000000e+00 
2.6422619e-06 -1.2883813e-04 0.0000000e+00 
8.0242100e-06 -1.2887701e-04 0.0000000e+00 
-8.2832150e-06 -1.3611606e-04 0.0000000e+00 
-2.7931539e-06 -1.3608677e-04 0.0000000e+00 
2.6946673e-06 -1.3608902e-04 0.0000000e+00 
8.1846664e-06 -1.3611546e-04 0.0000000e+00 
-8.4416603e-06 -1.4349594e-04 0.0000000e+00 
-2.8468034e-06 -1.4347914e-04 0.0000000e+00 
2.7455436e-06 -1.4348573e-04 0.0000000e+00 
8.3397617e-06 -1.4352299e-04 0.0000000e+00 
-8.5942587e-06 -1.5104049e-04 0.0000000e+00 
-2.8990507e-06 -1.5101322e-04 0.0000000e+00 
2.7945110e-06 -1.5101488e-04 0.0000000e+00 
8.4907730e-06 -1.5103986e-04 0.0000000e+00 
-8.7414417e-06 -1.5868966e-04 0.0000000e+00 
-2.9498439e-06 -1.5867403e-04 0.0000000e+00 
2.8416331e-06 -1.5868275e-04 0.0000000e+00 
8.6373191e-06 -1.5871772e-04 0.0000000e+00 
-8.8854082e-06 -1.6648118e-04 0.0000000e+00 
-2.9945748e-06 -1.6646664e-04 0.0000000e+00 
2.8915873e-06 -1.6647540e-04 0.0000000e+00 
8.7773020e-06 -1.6650976e-04 0.0000000e+00 
-9.0221834e-06 -1.7441125e-04 0.0000000e+00 
-3.0419562e-06 -1.7438667e-04 0.0000000e+00 
2.9356539e-06 -1.7438859e-04 0.0000000e+00 
8.9148574e-06 -1.7441115e-04 0.0000000e+00 
-9.1553171e-06 -1.8243225e-04 0.0000000e+00 
-3.0871903e-06 -1.8242042e-04 0.0000000e+00 
2.9786890e-06 -1.8242760e-04 0.0000000e+00 
9.0464901e-06 -1.8246134e-04 0.0000000e+00 
-9.2836412e-06 -1.9059753e-04 0.0000000e+00 
-3.1305975e-06 -1.9057451e-04 0.0000000e+00 
3.0203969e-06 -1.9057729e-04 0.0000000e+00 
9.1734821e-06 -1.9059811e-04 0.0000000e+00 
-9.4075333e-06 -1.9884527e-04 0.0000000e+00 
-3.1722617e-06 -1.9883545e-04 0.0000000e+00 
3.0607162e-06 -1.9884285e-04 0.0000000e+00 
9.2954995e-06 -1.9887531e-04 0.0000000e+00 
-9.5262800e-06 -2.0722942e-04 0.0000000e+00 
-3.2123816e-06 -2.0720810e-04 0.0000000e+00 
3.0994793e-06 -2.0721102e-04 0.0000000e+00 
9.4133725e-06 -2.0723028e-04 0.0000000e+00 
-9.6407110e-06 -2.1568721e-04 0.0000000e+00 
-3.2507920e-06 -2.1567926e-04 0.0000000e+00 
3.1368745e-06 -2.1568686e-04 0.0000000e+00 
9.5263143e-06 -2.1571796e-04 0.0000000e+00 
-9.7500995e-06 -2.2427362e-04 0.0000000e+00 
-3.2876749e-06 -2.2425398e-04 0.0000000e+00 
3.1727512e-06 -2.2425704e-04 0.0000000e+00 
9.6351750e-06 -2.2427477e-04 0.0000000e+00 
-9.8552493e-06 -2.3292514e-04 0.0000000e+00 
-3.3228773e-06 -2.3291902e-04 0.0000000e+00 
3.2072877e-06 -2.3292681e-04 0.0000000e+00 
9.7391945e-06 -2.3295659e-04 0.0000000e+00 
-9.9554538e-06 -2.4169762e-04 0.0000000e+00 
-3.3565810e-06 -2.4167963e-04 0.0000000e+00 
3.2403347e-06 -2.4168281e-04 0.0000000e+00 
9.8392110e-06 -2.4169905e-04 0.0000000e+00 
-1.0051501e-05 -2.5052683e-04 0.0000000e+00 
-3.3886361e-06 -2.5052251e-04 0.0000000e+00 
3.2720700e-06 -2.5053050e-04 0.0000000e+00 
9.9344835e-06 -2.5055897e-04 0.0000000e+00 
-1.0142724e-05 -2.5946951e-04 0.0000000e+00 
-3.4192120e-06 -2.5945314e-04 0.0000000e+00 
3.3023584e-06 -2.5945645e-04 0.0000000e+00 
1.0025819e-05 -2.5947124e-04 0.0000000e+00 
-1.0229921e-05 -2.6846087e-04 0.0000000e+00 
-3.4481848e-06 -2.6845818e-04 0.0000000e+00 
3.3313541e-06 -2.6846632e-04 0.0000000e+00 
1.0112474e-05 -2.6849339e-04 0.0000000e+00 
-1.0311930e-05 -2.7755827e-04 0.0000000e+00 
-3.4760026e-06 -2.7754368e-04 0.0000000e+00 
3.3586478e-06 -2.7754629e-04 0.0000000e+00 
1.0195757e-05 -2.7755985e-04 0.0000000e+00 
-1.0389079e-05 -2.8669591e-04 0.0000000e+00 
-3.5026438e-06 -2.8669404e-04 0.0000000e+00 
3.3842804e-06 -2.8670449e-04 0.0000000e+00 
1.0275403e-05 -2.8672940e-04 0.0000000e+00 
-1.0463989e-05 -2.9591696e-04 0.0000000e+00 
-3.5229824e-06 -2.9591602e-04 0.0000000e+00 
3.4134807e-06 -2.9592649e-04 0.0000000e+00 
1.0348945e-05 -2.9595090e-04 0.0000000e+00 
-1.0532298e-05 -3.0521821e-04 0.0000000e+00 
-3.5467135e-06 -3.0520587e-04 0.0000000e+00 
3.4365421e-06 -3.0520869e-04 0.0000000e+00 
1.0420991e-05 -3.0522018e-04 0.0000000e+00 
-1.0597769e-05 -3.1454804e-04 0.0000000e+00 
-3.5685434e-06 -3.1454957e-04 0.0000000e+00 
3.4588539e-06 -3.1455819e-04 0.0000000e+00 
1.0487877e-05 -3.1458230e-04 0.0000000e+00 
-1.0659382e-05 -3.2396668e-04 0.0000000e+00 
-3.5887820e-06 -3.2395558e-04 0.0000000e+00 
3.4801448e-06 -3.2395931e-04 0.0000000e+00 
1.0550798e-05 -3.2396929e-04 0.0000000e+00 
-1.0717325e-05 -3.3340701e-04 0.0000000e+00 
-3.6075844e-06 -3.3341020e-04 0.0000000e+00 
3.5003017e-06 -3.3341900e-04 0.0000000e+00 
1.0609665e-05 -3.3344208e-04 0.0000000e+00 
-1.0771091e-05 -3.4292970e-04 0.0000000e+00 
-3.6251278e-06 -3.4291995e-04 0.0000000e+00 
3.5192005e-06 -3.4292378e-04 0.0000000e+00 
1.0665163e-05 -3.4293247e-04 0.0000000e+00 
-1.0821373e-05 -3.5246686e-04 0.0000000e+00 
-3.6412914e-06 -3.5247153e-04 0.0000000e+00 
3.5370040e-06 -3.5248048e-04 0.0000000e+00 
1.0716715e-05 -3.5250245e-04 0.0000000e+00 
-1.0867644e-05 -3.6208012e-04 0.0000000e+00 
-3.6562337e-06 -3.6207169e-04 0.0000000e+00 
3.5536116e-06 -3.6207561e-04 0.0000000e+00 
1.0765025e-05 -3.6208308e-04 0.0000000e+00 
-1.0910581e-05 -3.7170107e-04 0.0000000e+00 
-3.6698453e-06 -3.7170717e-04 0.0000000e+00 
3.5691754e-06 -3.7171625e-04 0.0000000e+00 
1.0809547e-05 -3.7173717e-04 0.0000000e+00 
-1.0949663e-05 -3.8139211e-04 0.0000000e+00 
-3.6822873e-06 -3.8138495e-04 0.0000000e+00 
3.5835967e-06 -3.8138896e-04 0.0000000e+00 
1.0850981e-05 -3.8139525e-04 0.0000000e+00 
-1.0985569e-05 -3.9108435e-04 0.0000000e+00 
-3.6934483e-06 -3.9109181e-04 0.0000000e+00 
3.5970290e-06 -3.9110104e-04 0.0000000e+00 
1.0888789e-05 -3.9112095e-04 0.0000000e+00 
-1.1017795e-05 -4.0084094e-04 0.0000000e+00 
-3.7034806e-06 -4.0083500e-04 0.0000000e+00 
3.6093862e-06 -4.0083909e-04 0.0000000e+00 
1.0923651e-05 -4.0084428e-04 0.0000000e+00 
-1.1047055e-05 -4.1059268e-04 0.0000000e+00 
-3.7122930e-06 -4.1060133e-04 0.0000000e+00 
3.6208002e-06 -4.1061066e-04 0.0000000e+00 
1.0955007e-05 -4.1062949e-04 0.0000000e+00 
-1.1072278e-05 -4.2040328e-04 0.0000000e+00 
-3.7203468e-06 -4.2039870e-04 0.0000000e+00 
3.6308812e-06 -4.2040199e-04 0.0000000e+00 
1.0984101e-05 -4.2040633e-04 0.0000000e+00 
-1.1093685e-05 -4.3020259e-04 0.0000000e+00 
-3.7276541e-06 -4.3021154e-04 0.0000000e+00 
3.6396384e-06 -4.3022330e-04 0.0000000e+00 
1.1010869e-05 -4.3024026e-04 0.0000000e+00 
-1.1114263e-05 -4.4003887e-04 0.0000000e+00 
-3.7286425e-06 -4.4004851e-04 0.0000000e+00 
3.6527919e-06 -4.4006031e-04 0.0000000e+00 
1.1032489e-05 -4.4007694e-04 0.0000000e+00 
-1.1129292e-05 -4.4991000e-04 0.0000000e+00 
-3.7338426e-06 -4.4990699e-04 0.0000000e+00 
3.6597943e-06 -4.4991044e-04 0.0000000e+00 
1.1054023e-05 -4.4991331e-04 0.0000000e+00 
-1.1142783e-05 -4.5976141e-04 0.0000000e+00 
-3.7375193e-06 -4.5977315e-04 0.0000000e+00 
3.6665032e-06 -4.5978289e-04 0.0000000e+00 
1.1071628e-05 -4.5979973e-04 0.0000000e+00 
-1.1153736e-05 -4.6965989e-04 0.0000000e+00 
-3.7399977e-06 -4.6965762e-04 0.0000000e+00 
3.6726494e-06 -4.6966203e-04 0.0000000e+00 
1.1086468e-05 -4.6966378e-04 0.0000000e+00 
-1.1162264e-05 -4.7953399e-04 0.0000000e+00 
-3.7414496e-06 -4.7954696e-04 0.0000000e+00 
3.6780947e-06 -4.7955687e-04 0.0000000e+00 
1.1098580e-05 -4.7957312e-04 0.0000000e+00 
-1.1167901e-05 -4.8945107e-04 0.0000000e+00 
-3.7420660e-06 -4.8944968e-04 0.0000000e+00 
3.6827173e-06 -4.8945417e-04 0.0000000e+00 
1.1108581e-05 -4.8945505e-04 0.0000000e+00 
-1.1171306e-05 -4.9933873e-04 0.0000000e+00 
-3.7417122e-06 -4.9935275e-04 0.0000000e+00 
3.6866812e-06 -4.9936279e-04 0.0000000e+00 
1.1115958e-05 -4.9937840e-04 0.0000000e+00 
-1.1171987e-05 -5.0926551e-04 0.0000000e+00 
-3.7405601e-06 -5.0926496e-04 0.0000000e+00 
3.6898812e-06 -5.0926952e-04 0.0000000e+00 
1.1121346e-05 -5.0926959e-04 0.0000000e+00 
-1.1170568e-05 -5.1915823e-04 0.0000000e+00 
-3.7384839e-06 -5.1917326e-04 0.0000000e+00 
3.6924709e-06 -5.1918344e-04 0.0000000e+00 
1.1124258e-05 -5.1919845e-04 0.0000000e+00 
-1.1166577e-05 -5.2908647e-04 0.0000000e+00 
-3.7356574e-06 -5.2908670e-04 0.0000000e+00 
3.6943405e-06 -5.2909133e-04 0.0000000e+00 
1.1125308e-05 -5.2909063e-04 0.0000000e+00 
-1.1160609e-05 -5.3897623e-04 0.0000000e+00 
-3.7319526e-06 -5.3899222e-04 0.0000000e+00 
3.6956442e-06 -5.3900255e-04 0.0000000e+00 
1.1124026e-05 -5.3901702e-04 0.0000000e+00 
-1.1152238e-05 -5.4889815e-04 0.0000000e+00 
-3.7275306e-06 -5.4889914e-04 0.0000000e+00 
3.6962829e-06 -5.4890384e-04 0.0000000e+00 
1.1120979e-05 -5.4890243e-04 0.0000000e+00 
-1.1142061e-05 -5.5877760e-04 0.0000000e+00 
-3.7222892e-06 -5.5879436e-04 0.0000000e+00 
3.6963844e-06 -5.5880481e-04 0.0000000e+00 
1.1115691e-05 -5.5881863e-04 0.0000000e+00 
-1.1129062e-05 -5.6868601e-04 0.0000000e+00 
-3.7167251e-06 -5.6868793e-04 0.0000000e+00 
3.6955137e-06 -5.6869171e-04 0.0000000e+00 
1.1109314e-05 -5.6868987e-04 0.0000000e+00 
-1.1113237e-05 -5.7854746e-04 0.0000000e+00 
-3.7108684e-06 -5.7856403e-04 0.0000000e+00 
3.6936504e-06 -5.7857713e-04 0.0000000e+00 
1.1101972e-05 -5.7858942e-04 0.0000000e+00 
-1.1098066e-05 -5.8841640e-04 0.0000000e+00 
-3.6985467e-06 -5.8843350e-04 0.0000000e+00 
3.6970966e-06 -5.8844666e-04 0.0000000e+00 
1.1090317e-05 -5.8845886e-04 0.0000000e+00 
-1.1078342e-05 -5.9829198e-04 0.0000000e+00 
-3.6913881e-06 -5.9829480e-04 0.0000000e+00 
3.6942025e-06 -5.9829871e-04 0.0000000e+00 
1.1079850e-05 -5.9829591e-04 0.0000000e+00 
-1.1058176e-05 -6.0811494e-04 0.0000000e+00 
-3.6830747e-06 -6.0813383e-04 0.0000000e+00 
3.6913934e-06 -6.0814469e-04 0.0000000e+00 
1.1066593e-05 -6.0815759e-04 0.0000000e+00 
-1.1036822e-05 -6.1796054e-04 0.0000000e+00 
-3.6739176e-06 -6.1796364e-04 0.0000000e+00 
3.6884054e-06 -6.1796857e-04 0.0000000e+00 
1.1051444e-05 -6.1796497e-04 0.0000000e+00 
-1.1014001e-05 -6.2775080e-04 0.0000000e+00 
-3.6641550e-06 -6.2777053e-04 0.0000000e+00 
3.6850330e-06 -6.2778153e-04 0.0000000e+00 
1.1034805e-05 -6.2779424e-04 0.0000000e+00 
-1.0989617e-05 -6.3756164e-04 0.0000000e+00 
-3.6539432e-06 -6.3756519e-04 0.0000000e+00 
3.6811816e-06 -6.3757015e-04 0.0000000e+00 
1.1016927e-05 -6.3756602e-04 0.0000000e+00 
-1.0963936e-05 -6.4731398e-04 0.0000000e+00 
-3.6432000e-06 -6.4733434e-04 0.0000000e+00 
3.6769670e-06 -6.4734545e-04 0.0000000e+00 
1.0997678e-05 -6.4735786e-04 0.0000000e+00 
-1.0936906e-05 -6.5708500e-04 0.0000000e+00 
-3.6320477e-06 -6.5708896e-04 0.0000000e+00 
3.6723314e-06 -6.5709395e-04 0.0000000e+00 
1.0977268e-05 -6.5708935e-04 0.0000000e+00 
-1.0908702e-05 -6.6679484e-04 0.0000000e+00 
-3.6204311e-06 -6.6681577e-04 0.0000000e+00 
3.6673653e-06 -6.6682696e-04 0.0000000e+00 
1.0955666e-05 -6.6683912e-04 0.0000000e+00 
-1.0879355e-05 -6.7652169e-04 0.0000000e+00 
-3.6084620e-06 -6.7652600e-04 0.0000000e+00 
3.6620251e-06 -6.7653101e-04 0.0000000e+00 
1.0933002e-05 -6.7652599e-04 0.0000000e+00 
-1.0848964e-05 -6.8618498e-04 0.0000000e+00 
-3.5960993e-06 -6.8620639e-04 0.0000000e+00 
3.6563883e-06 -6.8621768e-04 0.0000000e+00 
1.0909336e-05 -6.8622961e-04 0.0000000e+00 
-1.0817667e-05 -6.9586384e-04 0.0000000e+00 
-3.5834284e-06 -6.9586846e-04 0.0000000e+00 
3.6504415e-06 -6.9587348e-04 0.0000000e+00 
1.0884693e-05 -6.9586810e-04 0.0000000e+00 
-1.0785519e-05 -7.0547728e-04 0.0000000e+00 
-3.5704500e-06 -7.0549896e-04 0.0000000e+00 
3.6442207e-06 -7.0551027e-04 0.0000000e+00 
1.0859185e-05 -7.0552187e-04 0.0000000e+00 
-1.0752069e-05 -7.1510506e-04 0.0000000e+00 
-3.5576033e-06 -7.1511016e-04 0.0000000e+00 
3.6373648e-06 -7.1511412e-04 0.0000000e+00 
1.0833426e-05 -7.1510869e-04 0.0000000e+00 
-1.0716660e-05 -7.2466512e-04 0.0000000e+00 
-3.5450614e-06 -7.2468598e-04 0.0000000e+00 
3.6297157e-06 -7.2470003e-04 0.0000000e+00 
1.0808258e-05 -7.2471031e-04 0.0000000e+00 
-1.0683678e-05 -7.3421838e-04 0.0000000e+00 
-3.5260455e-06 -7.3423942e-04 0.0000000e+00 
3.6282231e-06 -7.3425354e-04 0.0000000e+00 
1.0779449e-05 -7.3426382e-04 0.0000000e+00 
-1.0647498e-05 -7.4376486e-04 0.0000000e+00 
-3.5132322e-06 -7.4377013e-04 0.0000000e+00 
3.6201825e-06 -7.4377407e-04 0.0000000e+00 
1.0753014e-05 -7.4376828e-04 0.0000000e+00 
-1.0612017e-05 -7.5324167e-04 0.0000000e+00 
-3.4998278e-06 -7.5326401e-04 0.0000000e+00 
3.6125288e-06 -7.5327543e-04 0.0000000e+00 
1.0725264e-05 -7.5328681e-04 0.0000000e+00 
-1.0577161e-05 -7.6273146e-04 0.0000000e+00 
-3.4860224e-06 -7.6273648e-04 0.0000000e+00 
3.6051359e-06 -7.6274146e-04 0.0000000e+00 
1.0696425e-05 -7.6273526e-04 0.0000000e+00 
-1.0541925e-05 -7.7215152e-04 0.0000000e+00 
-3.4722204e-06 -7.7217409e-04 0.0000000e+00 
3.5976326e-06 -7.7218554e-04 0.0000000e+00 
1.0667698e-05 -7.7219705e-04 0.0000000e+00 
-1.0506921e-05 -7.8158462e-04 0.0000000e+00 
-3.4584554e-06 -7.8158958e-04 0.0000000e+00 
3.5900671e-06 -7.8159451e-04 0.0000000e+00 
1.0638610e-05 -7.8158821e-04 0.0000000e+00 
-1.0471732e-05 -7.9094749e-04 0.0000000e+00 
-3.4447817e-06 -7.9097006e-04 0.0000000e+00 
3.5824126e-06 -7.9098148e-04 0.0000000e+00 
1.0609773e-05 -7.9099301e-04 0.0000000e+00 
-1.0437010e-05 -8.0032364e-04 0.0000000e+00 
-3.4311895e-06 -8.0032849e-04 0.0000000e+00 
3.5747599e-06 -8.0033338e-04 0.0000000e+00 
1.0580662e-05 -8.0032704e-04 0.0000000e+00 
-1.0402235e-05 -8.0962959e-04 0.0000000e+00 
-3.4177604e-06 -8.0965208e-04 0.0000000e+00 
3.5670507e-06 -8.0966347e-04 0.0000000e+00 
1.0551986e-05 -8.0967505e-04 0.0000000e+00 
-1.0368132e-05 -8.1894929e-04 0.0000000e+00 
-3.4044690e-06 -8.1895398e-04 0.0000000e+00 
3.5593896e-06 -8.1895881e-04 0.0000000e+00 
1.0523136e-05 -8.1895249e-04 0.0000000e+00 
-1.0334098e-05 -8.2819913e-04 0.0000000e+00 
-3.3914084e-06 -8.2822147e-04 0.0000000e+00 
3.5517016e-06 -8.2823283e-04 0.0000000e+00 
1.0494897e-05 -8.2824448e-04 0.0000000e+00 
-1.0300946e-05 -8.3746339e-04 0.0000000e+00 
-3.3785223e-06 -8.3746789e-04 0.0000000e+00 
3.5441197e-06 -8.3747265e-04 0.0000000e+00 
1.0466553e-05 -8.3746643e-04 0.0000000e+00 
-1.0268035e-05 -8.4665865e-04 0.0000000e+00 
-3.3659416e-06 -8.4668062e-04 0.0000000e+00 
3.5365257e-06 -8.4669188e-04 0.0000000e+00 
1.0438919e-05 -8.4670347e-04 0.0000000e+00 
-1.0235556e-05 -8.5586913e-04 0.0000000e+00 
-3.3539686e-06 -8.5587363e-04 0.0000000e+00 
3.5286921e-06 -8.5587723e-04 0.0000000e+00 
1.0411887e-05 -8.5587137e-04 0.0000000e+00 
-1.0202118e-05 -8.6501095e-04 0.0000000e+00 
-3.3429247e-06 -8.6503147e-04 0.0000000e+00 
3.5202892e-06 -8.6504535e-04 0.0000000e+00 
1.0387008e-05 -8.6505587e-04 0.0000000e+00 