# vtk DataFile Version 4.0
vtk output
ASCII
DATASET UNSTRUCTURED_GRID
POINTS 604 float
5.5000000e+00 5.9700000e+00 0.0000000e+00 
5.5000000e+00 5.9900000e+00 0.0000000e+00 
5.5266667e+00 5.9700000e+00 0.0000000e+00 
5.5266667e+00 5.9900000e+00 0.0000000e+00 
5.5000000e+00 6.0100000e+00 0.0000000e+00 
5.5266667e+00 6.0100000e+00 0.0000000e+00 
5.5533333e+00 5.9700000e+00 0.0000000e+00 
5.5533333e+00 5.9900000e+00 0.0000000e+00 
5.5000000e+00 6.0300000e+00 0.0000000e+00 
5.5266667e+00 6.0300000e+00 0.0000000e+00 
5.5533333e+00 6.0100000e+00 0.0000000e+00 
5.5800000e+00 5.9700000e+00 0.0000000e+00 
5.5533333e+00 6.0300000e+00 0.0000000e+00 
5.5800000e+00 5.9900000e+00 0.0000000e+00 
5.5800000e+00 6.0100000e+00 0.0000000e+00 
5.5800000e+00 6.0300000e+00 0.0000000e+00 
5.6066667e+00 5.9700000e+00 0.0000000e+00 
5.6066667e+00 5.9900000e+00 0.0000000e+00 
5.6066667e+00 6.0100000e+00 0.0000000e+00 
5.6066667e+00 6.0300000e+00 0.0000000e+00 
5.6333333e+00 5.9700000e+00 0.0000000e+00 
5.6333333e+00 5.9900000e+00 0.0000000e+00 
5.6333333e+00 6.0100000e+00 0.0000000e+00 
5.6333333e+00 6.0300000e+00 0.0000000e+00 
5.6600000e+00 5.9700000e+00 0.0000000e+00 
5.6600000e+00 5.9900000e+00 0.0000000e+00 
5.6600000e+00 6.0100000e+00 0.0000000e+00 
5.6600000e+00 6.0300000e+00 0.0000000e+00 
5.6866667e+00 5.9700000e+00 0.0000000e+00 
5.6866667e+00 5.9900000e+00 0.0000000e+00 
5.6866667e+00 6.0100000e+00 0.0000000e+00 
5.6866667e+00 6.0300000e+00 0.0000000e+00 
5.7133333e+00 5.9700000e+00 0.0000000e+00 
5.7133333e+00 5.9900000e+00 0.0000000e+00 
5.7133333e+00 6.0100000e+00 0.0000000e+00 
5.7133333e+00 6.0300000e+00 0.0000000e+00 
5.7400000e+00 5.9700000e+00 0.0000000e+00 
5.7400000e+00 5.9900000e+00 0.0000000e+00 
5.7400000e+00 6.0100000e+00 0.0000000e+00 
5.7400000e+00 6.0300000e+00 0.0000000e+00 
5.7666667e+00 5.9700000e+00 0.0000000e+00 
5.7666667e+00 5.9900000e+00 0.0000000e+00 
5.7666667e+00 6.0100000e+00 0.0000000e+00 
5.7666667e+00 6.0300000e+00 0.0000000e+00 
5.7933333e+00 5.9700000e+00 0.0000000e+00 
5.7933333e+00 5.9900000e+00 0.0000000e+00 
5.7933333e+00 6.0100000e+00 0.0000000e+00 
5.7933333e+00 6.0300000e+00 0.0000000e+00 
5.8200000e+00 5.9700000e+00 0.0000000e+00 
5.8200000e+00 5.9900000e+00 0.0000000e+00 
5.8200000e+00 6.0100000e+00 0.0000000e+00 
5.8200000e+00 6.0300000e+00 0.0000000e+00 
5.8466667e+00 5.9700000e+00 0.0000000e+00 
5.8466667e+00 5.9900000e+00 0.0000000e+00 
5.8466667e+00 6.0100000e+00 0.0000000e+00 
5.8466667e+00 6.0300000e+00 0.0000000e+00 
5.8733333e+00 5.9700000e+00 0.0000000e+00 
5.8733333e+00 5.9900000e+00 0.0000000e+00 
5.8733333e+00 6.0100000e+00 0.0000000e+00 
5.8733333e+00 6.0300000e+00 0.0000000e+00 
5.9000000e+00 5.9700000e+00 0.0000000e+00 
5.9000000e+00 5.9900000e+00 0.0000000e+00 
5.9000000e+00 6.0100000e+00 0.0000000e+00 
5.9000000e+00 6.0300000e+00 0.0000000e+00 
5.9266667e+00 5.9700000e+00 0.0000000e+00 
5.9266667e+00 5.9900000e+00 0.0000000e+00 
5.9266667e+00 6.0100000e+00 0.0000000e+00 
5.9266667e+00 6.0300000e+00 0.0000000e+00 
5.9533333e+00 5.9700000e+00 0.0000000e+00 
5.9533333e+00 5.9900000e+00 0.0000000e+00 
5.9533333e+00 6.0100000e+00 0.0000000e+00 
5.9533333e+00 6.0300000e+00 0.0000000e+00 
5.9800000e+00 5.9700000e+00 0.0000000e+00 
5.9800000e+00 5.9900000e+00 0.0000000e+00 
5.9800000e+00 6.0100000e+00 0.0000000e+00 
5.9800000e+00 6.0300000e+00 0.0000000e+00 
6.0066667e+00 5.9700000e+00 0.0000000e+00 
6.0066667e+00 5.9900000e+00 0.0000000e+00 
6.0066667e+00 6.0100000e+00 0.0000000e+00 
6.0066667e+00 6.0300000e+00 0.0000000e+00 
6.0333333e+00 5.9700000e+00 0.0000000e+00 
6.0333333e+00 5.9900000e+00 0.0000000e+00 
6.0333333e+00 6.0100000e+00 0.0000000e+00 
6.0333333e+00 6.0300000e+00 0.0000000e+00 
6.0600000e+00 5.9700000e+00 0.0000000e+00 
6.0600000e+00 5.9900000e+00 0.0000000e+00 
6.0600000e+00 6.0100000e+00 0.0000000e+00 
6.0600000e+00 6.0300000e+00 0.0000000e+00 
6.0866667e+00 5.9700000e+00 0.0000000e+00 
6.0866667e+00 5.9900000e+00 0.0000000e+00 
6.0866667e+00 6.0100000e+00 0.0000000e+00 
6.0866667e+00 6.0300000e+00 0.0000000e+00 
6.1133333e+00 5.9700000e+00 0.0000000e+00 
6.1133333e+00 5.9900000e+00 0.0000000e+00 
6.1133333e+00 6.0100000e+00 0.0000000e+00 
6.1133333e+00 6.0300000e+00 0.0000000e+00 
6.1400000e+00 5.9700000e+00 0.0000000e+00 
6.1400000e+00 5.9900000e+00 0.0000000e+00 
6.1400000e+00 6.0100000e+00 0.0000000e+00 
6.1400000e+00 6.0300000e+00 0.0000000e+00 
6.1666667e+00 5.9700000e+00 0.0000000e+00 
6.1666667e+00 5.9900000e+00 0.0000000e+00 
6.1666667e+00 6.0100000e+00 0.0000000e+00 
6.1666667e+00 6.0300000e+00 0.0000000e+00 
6.1933333e+00 5.9700000e+00 0.0000000e+00 
6.1933333e+00 5.9900000e+00 0.0000000e+00 
6.1933333e+00 6.0100000e+00 0.0000000e+00 
6.1933333e+00 6.0300000e+00 0.0000000e+00 
6.2200000e+00 5.9700000e+00 0.0000000e+00 
6.2200000e+00 5.9900000e+00 0.0000000e+00 
6.2200000e+00 6.0100000e+00 0.0000000e+00 
6.2200000e+00 6.0300000e+00 0.0000000e+00 
6.2466667e+00 5.9700000e+00 0.0000000e+00 
6.2466667e+00 5.9900000e+00 0.0000000e+00 
6.2466667e+00 6.0100000e+00 0.0000000e+00 
6.2466667e+00 6.0300000e+00 0.0000000e+00 
6.2733333e+00 5.9700000e+00 0.0000000e+00 
6.2733333e+00 5.9900000e+00 0.0000000e+00 
6.2733333e+00 6.0100000e+00 0.0000000e+00 
6.2733333e+00 6.0300000e+00 0.0000000e+00 
6.3000000e+00 5.9700000e+00 0.0000000e+00 
6.3000000e+00 5.9900000e+00 0.0000000e+00 
6.3000000e+00 6.0100000e+00 0.0000000e+00 
6.3000000e+00 6.0300000e+00 0.0000000e+00 
6.3266667e+00 5.9700000e+00 0.0000000e+00 
6.3266667e+00 5.9900000e+00 0.0000000e+00 
6.3266667e+00 6.0100000e+00 0.0000000e+00 
6.3266667e+00 6.0300000e+00 0.0000000e+00 
6.3533333e+00 5.9700000e+00 0.0000000e+00 
6.3533333e+00 5.9900000e+00 0.0000000e+00 
6.3533333e+00 6.0100000e+00 0.0000000e+00 
6.3533333e+00 6.0300000e+00 0.0000000e+00 
6.3800000e+00 5.9700000e+00 0.0000000e+00 
6.3800000e+00 5.9900000e+00 0.0000000e+00 
6.3800000e+00 6.0100000e+00 0.0000000e+00 
6.3800000e+00 6.0300000e+00 0.0000000e+00 
6.4066667e+00 5.9700000e+00 0.0000000e+00 
6.4066667e+00 5.9900000e+00 0.0000000e+00 
6.4066667e+00 6.0100000e+00 0.0000000e+00 
6.4066667e+00 6.0300000e+00 0.0000000e+00 
6.4333333e+00 5.9700000e+00 0.0000000e+00 
6.4333333e+00 5.9900000e+00 0.0000000e+00 
6.4333333e+00 6.0100000e+00 0.0000000e+00 
6.4333333e+00 6.0300000e+00 0.0000000e+00 
6.4600000e+00 5.9700000e+00 0.0000000e+00 
6.4600000e+00 5.9900000e+00 0.0000000e+00 
6.4600000e+00 6.0100000e+00 0.0000000e+00 
6.4600000e+00 6.0300000e+00 0.0000000e+00 
6.4866667e+00 5.9700000e+00 0.0000000e+00 
6.4866667e+00 5.9900000e+00 0.0000000e+00 
6.4866667e+00 6.0100000e+00 0.0000000e+00 
6.4866667e+00 6.0300000e+00 0.0000000e+00 
6.5133333e+00 5.9700000e+00 0.0000000e+00 
6.5133333e+00 5.9900000e+00 0.0000000e+00 
6.5133333e+00 6.0100000e+00 0.0000000e+00 
6.5133333e+00 6.0300000e+00 0.0000000e+00 
6.5400000e+00 5.9700000e+00 0.0000000e+00 
6.5400000e+00 5.9900000e+00 0.0000000e+00 
6.5400000e+00 6.0100000e+00 0.0000000e+00 
6.5400000e+00 6.0300000e+00 0.0000000e+00 
6.5666667e+00 5.9700000e+00 0.0000000e+00 
6.5666667e+00 5.9900000e+00 0.0000000e+00 
6.5666667e+00 6.0100000e+00 0.0000000e+00 
6.5666667e+00 6.0300000e+00 0.0000000e+00 
6.5933333e+00 5.9700000e+00 0.0000000e+00 
6.5933333e+00 5.9900000e+00 0.0000000e+00 
6.5933333e+00 6.0100000e+00 0.0000000e+00 
6.5933333e+00 6.0300000e+00 0.0000000e+00 
6.6200000e+00 5.9700000e+00 0.0000000e+00 
6.6200000e+00 5.9900000e+00 0.0000000e+00 
6.6200000e+00 6.0100000e+00 0.0000000e+00 
6.6200000e+00 6.0300000e+00 0.0000000e+00 
6.6466667e+00 5.9700000e+00 0.0000000e+00 
6.6466667e+00 5.9900000e+00 0.0000000e+00 
6.6466667e+00 6.0100000e+00 0.0000000e+00 
6.6466667e+00 6.0300000e+00 0.0000000e+00 
6.6733333e+00 5.9700000e+00 0.0000000e+00 
6.6733333e+00 5.9900000e+00 0.0000000e+00 
6.6733333e+00 6.0100000e+00 0.0000000e+00 
6.6733333e+00 6.0300000e+00 0.0000000e+00 
6.7000000e+00 5.9700000e+00 0.0000000e+00 
6.7000000e+00 5.9900000e+00 0.0000000e+00 
6.7000000e+00 6.0100000e+00 0.0000000e+00 
6.7000000e+00 6.0300000e+00 0.0000000e+00 
6.7266667e+00 5.9700000e+00 0.0000000e+00 
6.7266667e+00 5.9900000e+00 0.0000000e+00 
6.7266667e+00 6.0100000e+00 0.0000000e+00 
6.7266667e+00 6.0300000e+00 0.0000000e+00 
6.7533333e+00 5.9700000e+00 0.0000000e+00 
6.7533333e+00 5.9900000e+00 0.0000000e+00 
6.7533333e+00 6.0100000e+00 0.0000000e+00 
6.7533333e+00 6.0300000e+00 0.0000000e+00 
6.7800000e+00 5.9700000e+00 0.0000000e+00 
6.7800000e+00 5.9900000e+00 0.0000000e+00 
6.7800000e+00 6.0100000e+00 0.0000000e+00 
6.7800000e+00 6.0300000e+00 0.0000000e+00 
6.8066667e+00 5.9700000e+00 0.0000000e+00 
6.8066667e+00 5.9900000e+00 0.0000000e+00 
6.8066667e+00 6.0100000e+00 0.0000000e+00 
6.8066667e+00 6.0300000e+00 0.0000000e+00 
6.8333333e+00 5.9700000e+00 0.0000000e+00 
6.8333333e+00 5.9900000e+00 0.0000000e+00 
6.8333333e+00 6.0100000e+00 0.0000000e+00 
6.8333333e+00 6.0300000e+00 0.0000000e+00 
6.8600000e+00 5.9700000e+00 0.0000000e+00 
6.8600000e+00 5.9900000e+00 0.0000000e+00 
6.8600000e+00 6.0100000e+00 0.0000000e+00 
6.8600000e+00 6.0300000e+00 0.0000000e+00 
6.8866667e+00 5.9700000e+00 0.0000000e+00 
6.8866667e+00 5.9900000e+00 0.0000000e+00 
6.8866667e+00 6.0100000e+00 0.0000000e+00 
6.8866667e+00 6.0300000e+00 0.0000000e+00 
6.9133333e+00 5.9700000e+00 0.0000000e+00 
6.9133333e+00 5.9900000e+00 0.0000000e+00 
6.9133333e+00 6.0100000e+00 0.0000000e+00 
6.9133333e+00 6.0300000e+00 0.0000000e+00 
6.9400000e+00 5.9700000e+00 0.0000000e+00 
6.9400000e+00 5.9900000e+00 0.0000000e+00 
6.9400000e+00 6.0100000e+00 0.0000000e+00 
6.9400000e+00 6.0300000e+00 0.0000000e+00 
6.9666667e+00 5.9700000e+00 0.0000000e+00 
6.9666667e+00 5.9900000e+00 0.0000000e+00 
6.9666667e+00 6.0100000e+00 0.0000000e+00 
6.9666667e+00 6.0300000e+00 0.0000000e+00 
6.9933333e+00 5.9700000e+00 0.0000000e+00 
6.9933333e+00 5.9900000e+00 0.0000000e+00 
6.9933333e+00 6.0100000e+00 0.0000000e+00 
6.9933333e+00 6.0300000e+00 0.0000000e+00 
7.0200000e+00 5.9700000e+00 0.0000000e+00 
7.0200000e+00 5.9900000e+00 0.0000000e+00 
[...]
POINT_DATA 604
FIELD FieldData 2
DISPLACEMENT 3 604  float
0.0000000e+00 0.0000000e+00 0.0000000e+00 
0.0000000e+00 0.0000000e+00 0.0000000e+00 
1.5396433e-04 9.4573131e-05 0.0000000e+00 
4.8938190e-05 6.1778434e-05 0.0000000e+00 
0.0000000e+00 0.0000000e+00 0.0000000e+00 
-4.8623201e-05 6.1272078e-05 0.0000000e+00 
3.0870933e-04 3.0116441e-04 0.0000000e+00 
1.0252950e-04 2.7383620e-04 0.0000000e+00 
0.0000000e+00 0.0000000e+00 0.0000000e+00 
-1.5394624e-04 9.2958259e-05 0.0000000e+00 
-1.0340847e-04 2.7269663e-04 0.0000000e+00 
4.5893132e-04 6.5024063e-04 0.0000000e+00 
-3.1014691e-04 2.9816080e-04 0.0000000e+00 
1.5095575e-04 6.2113599e-04 0.0000000e+00 
-1.5580169e-04 6.1852750e-04 0.0000000e+00 
-4.6462070e-04 6.4222113e-04 0.0000000e+00 
6.0357713e-04 1.1322999e-03 0.0000000e+00 
1.9655251e-04 1.1025550e-03 0.0000000e+00 
-2.0949903e-04 1.0983648e-03 0.0000000e+00 
-6.1758507e-04 1.1201078e-03 0.0000000e+00 
7.4209072e-04 1.7468846e-03 0.0000000e+00 
2.3830604e-04 1.7150690e-03 0.0000000e+00 
-2.6464684e-04 1.7084750e-03 0.0000000e+00 
-7.6977147e-04 1.7269309e-03 0.0000000e+00 
8.7397535e-04 2.4886103e-03 0.0000000e+00 
2.7572346e-04 2.4552185e-03 0.0000000e+00 
-3.2186793e-04 2.4463125e-03 0.0000000e+00 
-9.2178973e-04 2.4620118e-03 0.0000000e+00 
9.9879639e-04 3.3560877e-03 0.0000000e+00 
3.0809504e-04 3.3203105e-03 0.0000000e+00 
-3.8186449e-04 3.3084348e-03 0.0000000e+00 
-1.0740390e-03 3.3205742e-03 0.0000000e+00 
1.1159274e-03 4.3462678e-03 0.0000000e+00 
3.3530551e-04 4.3073278e-03 0.0000000e+00 
-4.4475286e-04 4.2918635e-03 0.0000000e+00 
-1.2271853e-03 4.2996372e-03 0.0000000e+00 
1.2251656e-03 5.4543958e-03 0.0000000e+00 
3.5674606e-04 5.4128930e-03 0.0000000e+00 
-5.1118964e-04 5.3940233e-03 0.0000000e+00 
-1.3815923e-03 5.3980789e-03 0.0000000e+00 
1.3259669e-03 6.6797377e-03 0.0000000e+00 
3.7202461e-04 6.6344315e-03 0.0000000e+00 
-5.8154016e-04 6.6114842e-03 0.0000000e+00 
-1.5376286e-03 6.6105454e-03 0.0000000e+00 
1.4181387e-03 8.0169878e-03 0.0000000e+00 
3.8080597e-04 7.9685986e-03 0.0000000e+00 
-6.5618127e-04 7.9416871e-03 0.0000000e+00 
-1.6957488e-03 7.9365220e-03 0.0000000e+00 
1.5011976e-03 9.4654641e-03 0.0000000e+00 
3.8277146e-04 9.4127769e-03 0.0000000e+00 
-7.3540869e-04 9.3813066e-03 0.0000000e+00 
-1.8562136e-03 9.3706645e-03 0.0000000e+00 
1.5750711e-03 1.1019847e-02 0.0000000e+00 
3.7764919e-04 1.0963656e-02 0.0000000e+00 
-8.1954041e-04 1.0927800e-02 0.0000000e+00 
-2.0194005e-03 1.0912519e-02 0.0000000e+00 
1.6393150e-03 1.2679526e-02 0.0000000e+00 
3.6518746e-04 1.2618652e-02 0.0000000e+00 
-9.0879812e-04 1.2577862e-02 0.0000000e+00 
-2.1854847e-03 1.2556731e-02 0.0000000e+00 
1.6939503e-03 1.4439172e-02 0.0000000e+00 
3.4518462e-04 1.4374475e-02 0.0000000e+00 
-1.0034351e-03 1.4328979e-02 0.0000000e+00 
-2.3547910e-03 1.4302898e-02 0.0000000e+00 
1.7385714e-03 1.6298239e-02 0.0000000e+00 
3.1745171e-04 1.6228573e-02 0.0000000e+00 
-1.1036033e-03 1.6177865e-02 0.0000000e+00 
-2.5274116e-03 1.6145659e-02 0.0000000e+00 
1.7732863e-03 1.8251385e-02 0.0000000e+00 
2.8185291e-04 1.8177672e-02 0.0000000e+00 
-1.2094955e-03 1.8122033e-02 0.0000000e+00 
-2.7036229e-03 1.8084659e-02 0.0000000e+00 
1.7977267e-03 2.0298124e-02 0.0000000e+00 
2.3825688e-04 2.0219249e-02 0.0000000e+00 
-1.3211990e-03 2.0158214e-02 0.0000000e+00 
-2.8834371e-03 2.0114532e-02 0.0000000e+00 
1.8120815e-03 2.2433111e-02 0.0000000e+00 
1.8659047e-04 2.2350047e-02 0.0000000e+00 
-1.4388491e-03 2.2283942e-02 0.0000000e+00 
-3.0670851e-03 2.2234957e-02 0.0000000e+00 
1.8159963e-03 2.4655901e-02 0.0000000e+00 
1.2678648e-04 2.4567586e-02 0.0000000e+00 
-1.5624592e-03 2.4495954e-02 0.0000000e+00 
-3.2545261e-03 2.4440575e-02 0.0000000e+00 
1.8097144e-03 2.6961125e-02 0.0000000e+00 
5.8846470e-05 2.6868528e-02 0.0000000e+00 
-1.6921193e-03 2.6791892e-02 0.0000000e+00 
-3.4459691e-03 2.6731112e-02 0.0000000e+00 
1.7931697e-03 2.9347814e-02 0.0000000e+00 
-1.7475954e-05 2.9250434e-02 0.0000000e+00 
-1.8280151e-03 2.9168474e-02 0.0000000e+00 
-3.6412248e-03 2.9101838e-02 0.0000000e+00 
1.7661976e-03 3.1813123e-02 0.0000000e+00 
-1.0177745e-04 3.1710511e-02 0.0000000e+00 
-1.9697462e-03 3.1622944e-02 0.0000000e+00 
-3.8404678e-03 3.1549946e-02 0.0000000e+00 
1.7291793e-03 3.4352303e-02 0.0000000e+00 
-1.9420011e-04 3.4245504e-02 0.0000000e+00 
-2.1175345e-03 3.4152903e-02 0.0000000e+00 
-4.0436432e-03 3.4074608e-02 0.0000000e+00 
1.6818378e-03 3.6965045e-02 0.0000000e+00 
-2.9471016e-04 3.6853055e-02 0.0000000e+00 
-2.2712542e-03 3.6755048e-02 0.0000000e+00 
-4.2505354e-03 3.6670446e-02 0.0000000e+00 
1.6245788e-03 3.9645968e-02 0.0000000e+00 
-4.0318440e-04 3.9529930e-02 0.0000000e+00 
-2.4308619e-03 3.9426985e-02 0.0000000e+00 
-4.4612694e-03 3.9337231e-02 0.0000000e+00 
1.5571693e-03 4.2394779e-02 0.0000000e+00 
-5.1954072e-04 4.2273700e-02 0.0000000e+00 
-2.5962024e-03 4.2165507e-02 0.0000000e+00 
-4.6755498e-03 4.2069600e-02 0.0000000e+00 
1.4800937e-03 4.5206085e-02 0.0000000e+00 
-6.4362342e-04 4.5081150e-02 0.0000000e+00 
-2.7672003e-03 4.4968210e-02 0.0000000e+00 
-4.8934511e-03 4.4867345e-02 0.0000000e+00 
1.3931412e-03 4.8079617e-02 0.0000000e+00 
-7.7531273e-04 4.7949860e-02 0.0000000e+00 
-2.9436578e-03 4.7831892e-02 0.0000000e+00 
-5.1146236e-03 4.7725096e-02 0.0000000e+00 
1.2968487e-03 5.1009980e-02 0.0000000e+00 
-9.1441132e-04 5.0876618e-02 0.0000000e+00 
-3.1254608e-03 5.0754154e-02 0.0000000e+00 
-5.3391138e-03 5.0642650e-02 0.0000000e+00 
1.1910284e-03 5.3996917e-02 0.0000000e+00 
-1.0607640e-03 5.3859009e-02 0.0000000e+00 
-3.3123716e-03 5.3731795e-02 0.0000000e+00 
-5.5665214e-03 5.3614639e-02 0.0000000e+00 
1.0762655e-03 5.7035034e-02 0.0000000e+00 
-1.2141357e-03 5.6893825e-02 0.0000000e+00 
-3.5042415e-03 5.6762419e-02 0.0000000e+00 
-5.7968672e-03 5.6640861e-02 0.0000000e+00 
9.5239427e-04 6.0124080e-02 0.0000000e+00 
-1.3743392e-03 5.9978656e-02 0.0000000e+00 
-3.7007970e-03 5.9842828e-02 0.0000000e+00 
-6.0297046e-03 5.9715949e-02 0.0000000e+00 
8.2004412e-04 6.3258672e-02 0.0000000e+00 
-1.5411046e-03 6.3110293e-02 0.0000000e+00 
-3.9018571e-03 6.2970625e-02 0.0000000e+00 
-6.2650293e-03 6.2839691e-02 0.0000000e+00 
6.7904837e-04 6.6438546e-02 0.0000000e+00 
-1.7142055e-03 6.6286345e-02 0.0000000e+00 
-4.1071020e-03 6.6142599e-02 0.0000000e+00 
-6.5023773e-03 6.6006730e-02 0.0000000e+00 
5.3005337e-04 6.9658312e-02 0.0000000e+00 
-1.8933184e-03 6.9503514e-02 0.0000000e+00 
-4.3163350e-03 6.9356443e-02 0.0000000e+00 
-6.7417430e-03 6.9216866e-02 0.0000000e+00 
3.7320929e-04 7.2917142e-02 0.0000000e+00 
-2.0784249e-03 7.2759427e-02 0.0000000e+00 
-4.5294382e-03 7.2608916e-02 0.0000000e+00 
-6.9825798e-03 7.2465385e-02 0.0000000e+00 
2.0862059e-04 7.6212218e-02 0.0000000e+00 
-2.2688433e-03 7.6051353e-02 0.0000000e+00 
-4.7457327e-03 7.5897319e-02 0.0000000e+00 
-7.2247818e-03 7.5749519e-02 0.0000000e+00 
3.6972313e-05 7.9538839e-02 0.0000000e+00 
-2.4644442e-03 7.9376063e-02 0.0000000e+00 
-4.9651882e-03 7.9219273e-02 0.0000000e+00 
-7.4680768e-03 7.9068461e-02 0.0000000e+00 
-1.4184535e-04 8.2896733e-02 0.0000000e+00 
-2.6649640e-03 8.2731231e-02 0.0000000e+00 
-5.1874136e-03 8.2571497e-02 0.0000000e+00 
-7.7119132e-03 8.2416850e-02 0.0000000e+00 
-3.2711792e-04 8.6280582e-02 0.0000000e+00 
-2.8700286e-03 8.6113651e-02 0.0000000e+00 
-5.4121365e-03 8.5951612e-02 0.0000000e+00 
-7.9562552e-03 8.5794451e-02 0.0000000e+00 
-5.1892044e-04 8.9690078e-02 0.0000000e+00 
-3.0793443e-03 8.9520917e-02 0.0000000e+00 
-5.6389699e-03 8.9356429e-02 0.0000000e+00 
-8.2005082e-03 8.9195926e-02 0.0000000e+00 
-7.1649748e-04 9.3119941e-02 0.0000000e+00 
-3.2925328e-03 9.2949850e-02 0.0000000e+00 
-5.8676360e-03 9.2783559e-02 0.0000000e+00 
-8.4446110e-03 9.2621049e-02 0.0000000e+00 
-9.1990965e-04 9.6569846e-02 0.0000000e+00 
-3.5092866e-03 9.6398045e-02 0.0000000e+00 
-6.0977349e-03 9.6229823e-02 0.0000000e+00 
-8.6879519e-03 9.6064489e-02 0.0000000e+00 
-1.1283878e-03 1.0003456e-01 0.0000000e+00 
-3.7292142e-03 9.9862345e-02 0.0000000e+00 
-6.3289782e-03 9.9692841e-02 0.0000000e+00 
-8.9304682e-03 9.9526027e-02 0.0000000e+00 
-1.3419782e-03 1.0351375e-01 0.0000000e+00 
-3.9519973e-03 1.0334035e-01 0.0000000e+00 
-6.5609576e-03 1.0316945e-01 0.0000000e+00 
-9.1715360e-03 1.0300035e-01 0.0000000e+00 
-1.5599028e-03 1.0700223e-01 0.0000000e+00 
-4.1772366e-03 1.0682894e-01 0.0000000e+00 
-6.7933788e-03 1.0665729e-01 0.0000000e+00 
-9.4110953e-03 1.0648724e-01 0.0000000e+00 
-1.7821955e-03 1.1049965e-01 0.0000000e+00 
-4.4046068e-03 1.1032572e-01 0.0000000e+00 
-7.0258305e-03 1.1015321e-01 0.0000000e+00 
-9.6485151e-03 1.0998142e-01 0.0000000e+00 
-2.0080741e-03 1.1400091e-01 0.0000000e+00 
-4.6337052e-03 1.1382761e-01 0.0000000e+00 
-7.2580159e-03 1.1365488e-01 0.0000000e+00 
-9.8837408e-03 1.1348268e-01 0.0000000e+00 
-2.2375839e-03 1.1750564e-01 0.0000000e+00 
-4.8641940e-03 1.1733225e-01 0.0000000e+00 
-7.4895124e-03 1.1715917e-01 0.0000000e+00 
-1.0116162e-02 1.1698578e-01 0.0000000e+00 
-2.4699633e-03 1.2100879e-01 0.0000000e+00 
-5.0956521e-03 1.2083652e-01 0.0000000e+00 
-7.7200378e-03 1.2066386e-01 0.0000000e+00 
-1.0345752e-02 1.2049056e-01 0.0000000e+00 
-2.7049669e-03 1.2450950e-01 0.0000000e+00 
-5.3279492e-03 1.2433810e-01 0.0000000e+00 
-7.9494003e-03 1.2416583e-01 0.0000000e+00 
-1.0571884e-02 1.2399244e-01 0.0000000e+00 
-2.9423607e-03 1.2800509e-01 0.0000000e+00 
-5.5603703e-03 1.2783443e-01 0.0000000e+00 
-8.1768845e-03 1.2766251e-01 0.0000000e+00 
-1.0794434e-02 1.2748876e-01 0.0000000e+00 
-3.1814206e-03 1.3149133e-01 0.0000000e+00 
-5.7927150e-03 1.3132254e-01 0.0000000e+00 
-8.4024302e-03 1.3115174e-01 0.0000000e+00 
-1.1013159e-02 1.3097890e-01 0.0000000e+00 
-3.4221702e-03 1.3496786e-01 0.0000000e+00 
-6.0246843e-03 1.3480026e-01 0.0000000e+00 
-8.6256305e-03 1.3463043e-01 0.0000000e+00 
-1.1227466e-02 1.3445772e-01 0.0000000e+00 
-3.6638892e-03 1.3842997e-01 0.0000000e+00 
-6.2558901e-03 1.3826472e-01 0.0000000e+00 
-8.8462143e-03 1.3809646e-01 0.0000000e+00 
-1.1437389e-02 1.3792518e-01 0.0000000e+00 
-3.9065842e-03 1.4187728e-01 0.0000000e+00 
-6.4860297e-03 1.4171370e-01 0.0000000e+00 
-9.0638176e-03 1.4154690e-01 0.0000000e+00 
-1.1642332e-02 1.4137624e-01 0.0000000e+00 
-4.1495358e-03 1.4530523e-01 0.0000000e+00 
-6.7147446e-03 1.4514444e-01 0.0000000e+00 
-9.2781960e-03 1.4497967e-01 0.0000000e+00 
-1.1842340e-02 1.4481093e-01 0.0000000e+00 
-4.3927544e-03 1.4871345e-01 0.0000000e+00 
-6.9417478e-03 1.4855478e-01 0.0000000e+00 
-9.4890091e-03 1.4839192e-01 0.0000000e+00 
-1.2036837e-02 1.4822426e-01 0.0000000e+00 
-4.6355466e-03 1.5209752e-01 0.0000000e+00 
-7.1667018e-03 1.5194204e-01 0.0000000e+00 
-9.6960338e-03 1.5178165e-01 0.0000000e+00 
-1.2225903e-02 1.5161637e-01 0.0000000e+00 
-4.8779283e-03 1.5545711e-01 0.0000000e+00 
-7.3893382e-03 1.5530417e-01 0.0000000e+00 
-9.8989569e-03 1.5514610e-01 0.0000000e+00 
-1.2408987e-02 1.5498234e-01 0.0000000e+00 
-5.1192353e-03 1.5878794e-01 0.0000000e+00 
-7.6093444e-03 1.5863856e-01 0.0000000e+00 
-1.0097580e-02 1.5848337e-01 0.0000000e+00 
-1.2586203e-02 1.5832239e-01 0.0000000e+00 
-5.3594919e-03 1.6208974e-01 0.0000000e+00 
-7.8264742e-03 1.6194326e-01 0.0000000e+00 
-1.0291622e-02 1.6179077e-01 0.0000000e+00 
-1.2757029e-02 1.6163171e-01 0.0000000e+00 
-5.5980659e-03 1.6535838e-01 0.0000000e+00 
-8.0404431e-03 1.6521579e-01 0.0000000e+00 
-1.0480911e-02 1.6506652e-01 0.0000000e+00 
-1.2921617e-02 1.6491063e-01 0.0000000e+00 
-5.8350119e-03 1.6859365e-01 0.0000000e+00 
-8.2510200e-03 1.6845429e-01 0.0000000e+00 
-1.0665188e-02 1.6830804e-01 0.0000000e+00 
-1.3079494e-02 1.6815443e-01 0.0000000e+00 
-6.0697477e-03 1.7179157e-01 0.0000000e+00 
-8.4579395e-03 1.7165635e-01 0.0000000e+00 
-1.0844318e-02 1.7151373e-01 0.0000000e+00 
-1.3230870e-02 1.7136357e-01 0.0000000e+00 
-6.3021010e-03 1.7495158e-01 0.0000000e+00 
-8.6611620e-03 1.7482021e-01 0.0000000e+00 
-1.1018296e-02 1.7468108e-01 0.0000000e+00 
-1.3375300e-02 1.7453407e-01 0.0000000e+00 
-6.5319030e-03 1.7807174e-01 0.0000000e+00 
-8.8601841e-03 1.7794400e-01 0.0000000e+00 
-1.1186615e-02 1.7780822e-01 0.0000000e+00 
-1.3512913e-02 1.7766399e-01 0.0000000e+00 
-6.7586368e-03 1.8114898e-01 0.0000000e+00 
-9.0549583e-03 1.8102567e-01 0.0000000e+00 
-1.1349414e-02 1.8089380e-01 0.0000000e+00 
-1.3643758e-02 1.8075347e-01 0.0000000e+00 
-6.9823941e-03 1.8418331e-01 0.0000000e+00 
-9.2453581e-03 1.8406379e-01 0.0000000e+00 
-1.1506522e-02 1.8393556e-01 0.0000000e+00 
-1.3767447e-02 1.8379820e-01 0.0000000e+00 
-7.2027064e-03 1.8717136e-01 0.0000000e+00 
-9.4312103e-03 1.8705642e-01 0.0000000e+00 
-1.1657877e-02 1.8693225e-01 0.0000000e+00 
-1.3884316e-02 1.8679899e-01 0.0000000e+00 
-7.4196683e-03 1.9011323e-01 0.0000000e+00 
-9.6124002e-03 1.9000220e-01 0.0000000e+00 
-1.1803373e-02 1.8988184e-01 0.0000000e+00 
-1.3993992e-02 1.8975172e-01 0.0000000e+00 
-7.6328324e-03 1.9300574e-01 0.0000000e+00 
-9.7888018e-03 1.9289937e-01 0.0000000e+00 
-1.1942984e-02 1.9278319e-01 0.0000000e+00 
-1.4096835e-02 1.9265734e-01 0.0000000e+00 
-7.8423129e-03 1.9584910e-01 0.0000000e+00 
-9.9603305e-03 1.9574673e-01 0.0000000e+00 
-1.2076647e-02 1.9563445e-01 0.0000000e+00 
-1.4192507e-02 1.9551188e-01 0.0000000e+00 
-8.0477029e-03 1.9864035e-01 0.0000000e+00 
-1.0126895e-02 1.9854267e-01 0.0000000e+00 
-1.2204367e-02 1.9843464e-01 0.0000000e+00 
-1.4281412e-02 1.9831644e-01 0.0000000e+00 
-8.2491355e-03 2.0137980e-01 0.0000000e+00 
-1.0288439e-02 2.0128614e-01 0.0000000e+00 
-1.2326117e-02 2.0118207e-01 0.0000000e+00 
-1.4363245e-02 2.0106723e-01 0.0000000e+00 
-8.4462428e-03 2.0406470e-01 0.0000000e+00 
-1.0444907e-02 2.0397571e-01 0.0000000e+00 
-1.2441933e-02 2.0387592e-01 0.0000000e+00 
-1.4438449e-02 2.0376549e-01 0.0000000e+00 
-8.6391765e-03 2.0669548e-01 0.0000000e+00 
-1.0596270e-02 2.0661049e-01 0.0000000e+00 
-1.2551827e-02 2.0651466e-01 0.0000000e+00 
-1.4506749e-02 2.0640765e-01 0.0000000e+00 
-8.8276057e-03 2.0926963e-01 0.0000000e+00 
-1.0742505e-02 2.0918925e-01 0.0000000e+00 
-1.2655860e-02 2.0909766e-01 0.0000000e+00 
-1.4568627e-02 2.0899507e-01 0.0000000e+00 
-9.0117163e-03 2.1178768e-01 0.0000000e+00 
-1.0883602e-02 2.1171124e-01 0.0000000e+00 
-1.2754072e-02 2.1162356e-01 0.0000000e+00 
-1.4623851e-02 2.1152439e-01 0.0000000e+00 
-9.1912252e-03 2.1424734e-01 0.0000000e+00 
-1.1019562e-02 2.1417538e-01 0.0000000e+00 
-1.2846551e-02 2.1409195e-01 0.0000000e+00 
-1.4672950e-02 2.1399711e-01 0.0000000e+00 
-9.3661459e-03 2.1664893e-01 0.0000000e+00 
-1.1150529e-02 2.1658106e-01 0.0000000e+00 
-1.2933558e-02 2.1650162e-01 0.0000000e+00 
-1.4715732e-02 2.1641065e-01 0.0000000e+00 
-9.5364810e-03 2.1899179e-01 0.0000000e+00 
-1.1276293e-02 2.1892768e-01 0.0000000e+00 
-1.3014876e-02 2.1885194e-01 0.0000000e+00 
-1.4752602e-02 2.1876437e-01 0.0000000e+00 
-9.7019821e-03 2.2127451e-01 0.0000000e+00 
-1.1397016e-02 2.2121461e-01 0.0000000e+00 
-1.3090854e-02 2.2114288e-01 0.0000000e+00 
-1.4783922e-02 2.2105955e-01 0.0000000e+00 
-9.8628830e-03 2.2349801e-01 0.0000000e+00 
-1.1512778e-02 2.2344168e-01 0.0000000e+00 
-1.3161601e-02 2.2337358e-01 0.0000000e+00 
-1.4809532e-02 2.2329350e-01 0.0000000e+00 
-1.0018988e-02 2.2566071e-01 0.0000000e+00 
-1.1623651e-02 2.2560838e-01 0.0000000e+00 
-1.3227251e-02 2.2554411e-01 0.0000000e+00 
-1.4830038e-02 2.2546813e-01 0.0000000e+00 
-1.0170532e-02 2.2776365e-01 0.0000000e+00 
-1.1729714e-02 2.2771468e-01 0.0000000e+00 
-1.3287962e-02 2.2765386e-01 0.0000000e+00 
-1.4845276e-02 2.2758100e-01 0.0000000e+00 
-1.0317326e-02 2.2980546e-01 0.0000000e+00 
-1.1831068e-02 2.2976026e-01 0.0000000e+00 
-1.3343886e-02 2.2970308e-01 0.0000000e+00 
-1.4855859e-02 2.2963415e-01 0.0000000e+00 
-1.0459619e-02 2.3178733e-01 0.0000000e+00 
-1.1927806e-02 2.3174526e-01 0.0000000e+00 
-1.3395204e-02 2.3169133e-01 0.0000000e+00 
-1.4861634e-02 2.3162536e-01 0.0000000e+00 
-1.0597242e-02 2.3370810e-01 0.0000000e+00 
-1.2020048e-02 2.3366955e-01 0.0000000e+00 
-1.3442076e-02 2.3361903e-01 0.0000000e+00 
-1.4863232e-02 2.3355681e-01 0.0000000e+00 
-1.0730451e-02 2.3556909e-01 0.0000000e+00 
-1.2107897e-02 2.3553342e-01 0.0000000e+00 
-1.3484702e-02 2.3548594e-01 0.0000000e+00 
-1.4860511e-02 2.3542651e-01 0.0000000e+00 
-1.0859094e-02 2.3736938e-01 0.0000000e+00 
-1.2191485e-02 2.3733694e-01 0.0000000e+00 
-1.3523244e-02 2.3729265e-01 0.0000000e+00 
-1.4854110e-02 2.3723675e-01 0.0000000e+00 
-1.0983436e-02 2.3911039e-01 0.0000000e+00 
-1.2270923e-02 2.3908057e-01 0.0000000e+00 
-1.3557918e-02 2.3903909e-01 0.0000000e+00 
-1.4843893e-02 2.3898579e-01 0.0000000e+00 
-1.1103335e-02 2.4079142e-01 0.0000000e+00 
-1.2346354e-02 2.4076456e-01 0.0000000e+00 
-1.3588887e-02 2.4072601e-01 0.0000000e+00 
-1.4830507e-02 2.4067603e-01 0.0000000e+00 
-1.1219076e-02 2.4241404e-01 0.0000000e+00 
-1.2417888e-02 2.4238953e-01 0.0000000e+00 
-1.3616371e-02 2.4235354e-01 0.0000000e+00 
-1.4813828e-02 2.4230596e-01 0.0000000e+00 
-1.1330537e-02 2.4397771e-01 0.0000000e+00 
-1.2485670e-02 2.4395587e-01 0.0000000e+00 
-1.3640531e-02 2.4392262e-01 0.0000000e+00 
-1.4794512e-02 2.4387810e-01 0.0000000e+00 
-1.1437858e-02 2.4548390e-01 0.0000000e+00 
-1.2549917e-02 2.4546434e-01 0.0000000e+00 
-1.3661731e-02 2.4543354e-01 0.0000000e+00 
-1.4772463e-02 2.4539160e-01 0.0000000e+00 
-1.1541137e-02 2.4693332e-01 0.0000000e+00 
-1.2610574e-02 2.4691570e-01 0.0000000e+00 
-1.3679905e-02 2.4688703e-01 0.0000000e+00 
-1.4748132e-02 2.4684725e-01 0.0000000e+00 
-1.1640248e-02 2.4832613e-01 0.0000000e+00 
-1.2667872e-02 2.4831073e-01 0.0000000e+00 
-1.3695408e-02 2.4828438e-01 0.0000000e+00 
-1.4721969e-02 2.4824733e-01 0.0000000e+00 
-1.1735488e-02 2.4966430e-01 0.0000000e+00 
-1.2721945e-02 2.4965055e-01 0.0000000e+00 
-1.3708451e-02 2.4962616e-01 0.0000000e+00 
-1.4693860e-02 2.4959102e-01 0.0000000e+00 
-1.1826754e-02 2.5094786e-01 0.0000000e+00 
-1.2772947e-02 2.5093605e-01 0.0000000e+00 
-1.3719178e-02 2.5091371e-01 0.0000000e+00 
-1.4664433e-02 2.5088108e-01 0.0000000e+00 
-1.1914337e-02 2.5217886e-01 0.0000000e+00 
-1.2820990e-02 2.5216844e-01 0.0000000e+00 
-1.3727817e-02 2.5214782e-01 0.0000000e+00 
-1.4633547e-02 2.5211690e-01 0.0000000e+00 
-1.1998118e-02 2.5335749e-01 0.0000000e+00 
-1.2866232e-02 2.5334875e-01 0.0000000e+00 
-1.3734506e-02 2.5332994e-01 0.0000000e+00 
-1.4601804e-02 2.5330130e-01 0.0000000e+00 
-1.2078389e-02 2.5448590e-01 0.0000000e+00 
-1.2908780e-02 2.5447831e-01 0.0000000e+00 
-1.3739465e-02 2.5446100e-01 0.0000000e+00 
-1.4569053e-02 2.5443387e-01 0.0000000e+00 
-1.2155027e-02 2.5556444e-01 0.0000000e+00 
-1.2948787e-02 2.5555827e-01 0.0000000e+00 
-1.3742819e-02 2.5554254e-01 0.0000000e+00 
-1.4535877e-02 2.5551749e-01 0.0000000e+00 
-1.2228321e-02 2.5659534e-01 0.0000000e+00 
-1.2986349e-02 2.5659008e-01 0.0000000e+00 
-1.3744779e-02 2.5657564e-01 0.0000000e+00 
-1.4502114e-02 2.5655192e-01 0.0000000e+00 
-1.2298147e-02 2.5757907e-01 0.0000000e+00 
-1.3021614e-02 2.5757500e-01 0.0000000e+00 
-1.3745455e-02 2.5756193e-01 0.0000000e+00 
-1.4468326e-02 2.5754008e-01 0.0000000e+00 
-1.2364789e-02 2.5851795e-01 0.0000000e+00 
-1.3054669e-02 2.5851459e-01 0.0000000e+00 
-1.3745048e-02 2.5850261e-01 0.0000000e+00 
-1.4434336e-02 2.5848193e-01 0.0000000e+00 
-1.2428118e-02 2.5941257e-01 0.0000000e+00 
-1.3085654e-02 2.5941019e-01 0.0000000e+00 
-1.3743650e-02 2.5939938e-01 0.0000000e+00 
-1.4400681e-02 2.5938037e-01 0.0000000e+00 
-1.2488425e-02 2.6026532e-01 0.0000000e+00 
-1.3114640e-02 2.6026345e-01 0.0000000e+00 
-1.3741447e-02 2.6025355e-01 0.0000000e+00 
-1.4367182e-02 2.6023557e-01 0.0000000e+00 
-1.2545588e-02 2.6107687e-01 0.0000000e+00 
-1.3141754e-02 2.6107577e-01 0.0000000e+00 
-1.3738517e-02 2.6106692e-01 0.0000000e+00 
-1.4334346e-02 2.6105041e-01 0.0000000e+00 
-1.2599779e-02 2.6184949e-01 0.0000000e+00 
-1.3167158e-02 2.6184891e-01 0.0000000e+00 
-1.3735106e-02 2.6184089e-01 0.0000000e+00 
-1.4302011e-02 2.6182552e-01 0.0000000e+00 
-1.2651120e-02 2.6258476e-01 0.0000000e+00 
-1.3190797e-02 2.6258444e-01 0.0000000e+00 