# vtk DataFile Version 4.0
vtk output
ASCII
DATASET UNSTRUCTURED_GRID
POINTS 604 float
5.5000000e+00 5.9700000e+00 0.0000000e+00 
5.5000000e+00 5.9900000e+00 0.0000000e+00 
5.5266667e+00 5.9700000e+00 0.0000000e+00 
5.5266667e+00 5.9900000e+00 0.0000000e+00 
5.5000000e+00 6.0100000e+00 0.0000000e+00 
5.5266667e+00 6.0100000e+00 0.0000000e+00 
5.5533333e+00 5.9700000e+00 0.0000000e+00 
5.5533333e+00 5.9900000e+00 0.0000000e+00 
5.5000000e+00 6.0300000e+00 0.0000000e+00 
5.5266667e+00 6.0300000e+00 0.0000000e+00 
5.5533333e+00 6.0100000e+00 0.0000000e+00 
5.5800000e+00 5.9700000e+00 0.0000000e+00 
5.5533333e+00 6.0300000e+00 0.0000000e+00 
5.5800000e+00 5.9900000e+00 0.0000000e+00 
5.5800000e+00 6.0100000e+00 0.0000000e+00 
5.5800000e+00 6.0300000e+00 0.0000000e+00 
5.6066667e+00 5.9700000e+00 0.0000000e+00 
5.6066667e+00 5.9900000e+00 0.0000000e+00 
5.6066667e+00 6.0100000e+00 0.0000000e+00 
5.6066667e+00 6.0300000e+00 0.0000000e+00 
5.6333333e+00 5.9700000e+00 0.0000000e+00 
5.6333333e+00 5.9900000e+00 0.0000000e+00 
5.6333333e+00 6.0100000e+00 0.0000000e+00 
5.6333333e+00 6.0300000e+00 0.0000000e+00 
5.6600000e+00 5.9700000e+00 0.0000000e+00 
5.6600000e+00 5.9900000e+00 0.0000000e+00 
5.6600000e+00 6.0100000e+00 0.0000000e+00 
5.6600000e+00 6.0300000e+00 0.0000000e+00 
5.6866667e+00 5.9700000e+00 0.0000000e+00 
5.6866667e+00 5.9900000e+00 0.0000000e+00 
5.6866667e+00 6.0100000e+00 0.0000000e+00 
5.6866667e+00 6.0300000e+00 0.0000000e+00 
5.7133333e+00 5.9700000e+00 0.0000000e+00 
5.7133333e+00 5.9900000e+00 0.0000000e+00 
5.7133333e+00 6.0100000e+00 0.0000000e+00 
5.7133333e+00 6.0300000e+00 0.0000000e+00 
5.7400000e+00 5.9700000e+00 0.0000000e+00 
5.7400000e+00 5.9900000e+00 0.0000000e+00 
5.7400000e+00 6.0100000e+00 0.0000000e+00 
5.7400000e+00 6.0300000e+00 0.0000000e+00 
5.7666667e+00 5.9700000e+00 0.0000000e+00 
5.7666667e+00 5.9900000e+00 0.0000000e+00 
5.7666667e+00 6.0100000e+00 0.0000000e+00 
5.7666667e+00 6.0300000e+00 0.0000000e+00 
5.7933333e+00 5.9700000e+00 0.0000000e+00 
5.7933333e+00 5.9900000e+00 0.0000000e+00 
5.7933333e+00 6.0100000e+00 0.0000000e+00 
5.7933333e+00 6.0300000e+00 0.0000000e+00 
5.8200000e+00 5.9700000e+00 0.0000000e+00 
5.8200000e+00 5.9900000e+00 0.0000000e+00 
5.8200000e+00 6.0100000e+00 0.0000000e+00 
5.8200000e+00 6.0300000e+00 0.0000000e+00 
5.8466667e+00 5.9700000e+00 0.0000000e+00 
5.8466667e+00 5.9900000e+00 0.0000000e+00 
5.8466667e+00 6.0100000e+00 0.0000000e+00 
5.8466667e+00 6.0300000e+00 0.0000000e+00 
5.8733333e+00 5.9700000e+00 0.0000000e+00 
5.8733333e+00 5.9900000e+00 0.0000000e+00 
5.8733333e+00 6.0100000e+00 0.0000000e+00 
5.8733333e+00 6.0300000e+00 0.0000000e+00 
5.9000000e+00 5.9700000e+00 0.0000000e+00 
5.9000000e+00 5.9900000e+00 0.0000000e+00 
5.9000000e+00 6.0100000e+00 0.0000000e+00 
5.9000000e+00 6.0300000e+00 0.0000000e+00 
5.9266667e+00 5.9700000e+00 0.0000000e+00 
5.9266667e+00 5.9900000e+00 0.0000000e+00 
5.9266667e+00 6.0100000e+00 0.0000000e+00 
5.9266667e+00 6.0300000e+00 0.0000000e+00 
5.9533333e+00 5.9700000e+00 0.0000000e+00 
5.9533333e+00 5.9900000e+00 0.0000000e+00 
5.9533333e+00 6.0100000e+00 0.0000000e+00 
5.9533333e+00 6.0300000e+00 0.0000000e+00 
5.9800000e+00 5.9700000e+00 0.0000000e+00 
5.9800000e+00 5.9900000e+00 0.0000000e+00 
5.9800000e+00 6.0100000e+00 0.0000000e+00 
5.9800000e+00 6.0300000e+00 0.0000000e+00 
6.0066667e+00 5.9700000e+00 0.0000000e+00 
6.0066667e+00 5.9900000e+00 0.0000000e+00 
6.0066667e+00 6.0100000e+00 0.0000000e+00 
6.0066667e+00 6.0300000e+00 0.0000000e+00 
6.0333333e+00 5.9700000e+00 0.0000000e+00 
6.0333333e+00 5.9900000e+00 0.0000000e+00 
6.0333333e+00 6.0100000e+00 0.0000000e+00 
6.0333333e+00 6.0300000e+00 0.0000000e+00 
6.0600000e+00 5.9700000e+00 0.0000000e+00 
6.0600000e+00 5.9900000e+00 0.0000000e+00 
6.0600000e+00 6.0100000e+00 0.0000000e+00 
6.0600000e+00 6.0300000e+00 0.0000000e+00 
6.0866667e+00 5.9700000e+00 0.0000000e+00 
6.0866667e+00 5.9900000e+00 0.0000000e+00 
6.0866667e+00 6.0100000e+00 0.0000000e+00 
6.0866667e+00 6.0300000e+00 0.0000000e+00 
6.1133333e+00 5.9700000e+00 0.0000000e+00 
6.1133333e+00 5.9900000e+00 0.0000000e+00 
6.1133333e+00 6.0100000e+00 0.0000000e+00 
6.1133333e+00 6.0300000e+00 0.0000000e+00 
6.1400000e+00 5.9700000e+00 0.0000000e+00 
6.1400000e+00 5.9900000e+00 0.0000000e+00 
6.1400000e+00 6.0100000e+00 0.0000000e+00 
6.1400000e+00 6.0300000e+00 0.0000000e+00 
6.1666667e+00 5.9700000e+00 0.0000000e+00 
6.1666667e+00 5.9900000e+00 0.0000000e+00 
6.1666667e+00 6.0100000e+00 0.0000000e+00 
6.1666667e+00 6.0300000e+00 0.0000000e+00 
6.1933333e+00 5.9700000e+00 0.0000000e+00 
6.1933333e+00 5.9900000e+00 0.0000000e+00 
6.1933333e+00 6.0100000e+00 0.0000000e+00 
6.1933333e+00 6.0300000e+00 0.0000000e+00 
6.2200000e+00 5.9700000e+00 0.0000000e+00 
6.2200000e+00 5.9900000e+00 0.0000000e+00 
6.2200000e+00 6.0100000e+00 0.0000000e+00 
6.2200000e+00 6.0300000e+00 0.0000000e+00 
6.2466667e+00 5.9700000e+00 0.0000000e+00 
6.2466667e+00 5.9900000e+00 0.0000000e+00 
6.2466667e+00 6.0100000e+00 0.0000000e+00 
6.2466667e+00 6.0300000e+00 0.0000000e+00 
6.2733333e+00 5.9700000e+00 0.0000000e+00 
6.2733333e+00 5.9900000e+00 0.0000000e+00 
6.2733333e+00 6.0100000e+00 0.0000000e+00 
6.2733333e+00 6.0300000e+00 0.0000000e+00 
6.3000000e+00 5.9700000e+00 0.0000000e+00 
6.3000000e+00 5.9900000e+00 0.0000000e+00 
6.3000000e+00 6.0100000e+00 0.0000000e+00 
6.3000000e+00 6.0300000e+00 0.0000000e+00 
6.3266667e+00 5.9700000e+00 0.0000000e+00 
6.3266667e+00 5.9900000e+00 0.0000000e+00 
6.3266667e+00 6.0100000e+00 0.0000000e+00 
6.3266667e+00 6.0300000e+00 0.0000000e+00 
6.3533333e+00 5.9700000e+00 0.0000000e+00 
6.3533333e+00 5.9900000e+00 0.0000000e+00 
6.3533333e+00 6.0100000e+00 0.0000000e+00 
6.3533333e+00 6.0300000e+00 0.0000000e+00 
6.3800000e+00 5.9700000e+00 0.0000000e+00 
6.3800000e+00 5.9900000e+00 0.0000000e+00 
6.3800000e+00 6.0100000e+00 0.0000000e+00 
6.3800000e+00 6.0300000e+00 0.0000000e+00 
6.4066667e+00 5.9700000e+00 0.0000000e+00 
6.4066667e+00 5.9900000e+00 0.0000000e+00 
6.4066667e+00 6.0100000e+00 0.0000000e+00 
6.4066667e+00 6.0300000e+00 0.0000000e+00 
6.4333333e+00 5.9700000e+00 0.0000000e+00 
6.4333333e+00 5.9900000e+00 0.0000000e+00 
6.4333333e+00 6.0100000e+00 0.0000000e+00 
6.4333333e+00 6.0300000e+00 0.0000000e+00 
6.4600000e+00 5.9700000e+00 0.0000000e+00 
6.4600000e+00 5.9900000e+00 0.0000000e+00 
6.4600000e+00 6.0100000e+00 0.0000000e+00 
6.4600000e+00 6.0300000e+00 0.0000000e+00 
6.4866667e+00 5.9700000e+00 0.0000000e+00 
6.4866667e+00 5.9900000e+00 0.0000000e+00 
6.4866667e+00 6.0100000e+00 0.0000000e+00 
6.4866667e+00 6.0300000e+00 0.0000000e+00 
6.5133333e+00 5.9700000e+00 0.0000000e+00 
6.5133333e+00 5.9900000e+00 0.0000000e+00 
6.5133333e+00 6.0100000e+00 0.0000000e+00 
6.5133333e+00 6.0300000e+00 0.0000000e+00 
6.5400000e+00 5.9700000e+00 0.0000000e+00 
6.5400000e+00 5.9900000e+00 0.0000000e+00 
6.5400000e+00 6.0100000e+00 0.0000000e+00 
6.5400000e+00 6.0300000e+00 0.0000000e+00 
6.5666667e+00 5.9700000e+00 0.0000000e+00 
6.5666667e+00 5.9900000e+00 0.0000000e+00 
6.5666667e+00 6.0100000e+00 0.0000000e+00 
6.5666667e+00 6.0300000e+00 0.0000000e+00 
6.5933333e+00 5.9700000e+00 0.0000000e+00 
6.5933333e+00 5.9900000e+00 0.0000000e+00 
6.5933333e+00 6.0100000e+00 0.0000000e+00 
6.5933333e+00 6.0300000e+00 0.0000000e+00 
6.6200000e+00 5.9700000e+00 0.0000000e+00 
6.6200000e+00 5.9900000e+00 0.0000000e+00 
6.6200000e+00 6.0100000e+00 0.0000000e+00 
6.6200000e+00 6.0300000e+00 0.0000000e+00 
6.6466667e+00 5.9700000e+00 0.0000000e+00 
6.6466667e+00 5.9900000e+00 0.0000000e+00 
6.6466667e+00 6.0100000e+00 0.0000000e+00 
6.6466667e+00 6.0300000e+00 0.0000000e+00 
6.6733333e+00 5.9700000e+00 0.0000000e+00 
6.6733333e+00 5.9900000e+00 0.0000000e+00 
6.6733333e+00 6.0100000e+00 0.0000000e+00 
6.6733333e+00 6.0300000e+00 0.0000000e+00 
6.7000000e+00 5.9700000e+00 0.0000000e+00 
6.7000000e+00 5.9900000e+00 0.0000000e+00 
6.7000000e+00 6.0100000e+00 0.0000000e+00 
6.7000000e+00 6.0300000e+00 0.0000000e+00 
6.7266667e+00 5.9700000e+00 0.0000000e+00 
6.7266667e+00 5.9900000e+00 0.0000000e+00 
6.7266667e+00 6.0100000e+00 0.0000000e+00 
6.7266667e+00 6.0300000e+00 0.0000000e+00 
6.7533333e+00 5.9700000e+00 0.0000000e+00 
6.7533333e+00 5.9900000e+00 0.0000000e+00 
6.7533333e+00 6.0100000e+00 0.0000000e+00 
6.7533333e+00 6.0300000e+00 0.0000000e+00 
6.7800000e+00 5.9700000e+00 0.0000000e+00 
6.7800000e+00 5.9900000e+00 0.0000000e+00 
6.7800000e+00 6.0100000e+00 0.0000000e+00 
6.7800000e+00 6.0300000e+00 0.0000000e+00 
6.8066667e+00 5.9700000e+00 0.0000000e+00 
6.8066667e+00 5.9900000e+00 0.0000000e+00 
6.8066667e+00 6.0100000e+00 0.0000000e+00 
6.8066667e+00 6.0300000e+00 0.0000000e+00 
6.8333333e+00 5.9700000e+00 0.0000000e+00 
6.8333333e+00 5.9900000e+00 0.0000000e+00 
6.8333333e+00 6.0100000e+00 0.0000000e+00 
6.8333333e+00 6.0300000e+00 0.0000000e+00 
6.8600000e+00 5.9700000e+00 0.0000000e+00 
6.8600000e+00 5.9900000e+00 0.0000000e+00 
6.8600000e+00 6.0100000e+00 0.0000000e+00 
6.8600000e+00 6.0300000e+00 0.0000000e+00 
6.8866667e+00 5.9700000e+00 0.0000000e+00 
6.8866667e+00 5.9900000e+00 0.0000000e+00 
6.8866667e+00 6.0100000e+00 0.0000000e+00 
6.8866667e+00 6.0300000e+00 0.0000000e+00 
6.9133333e+00 5.9700000e+00 0.0000000e+00 
6.9133333e+00 5.9900000e+00 0.0000000e+00 
6.9133333e+00 6.0100000e+00 0.0000000e+00 
6.9133333e+00 6.0300000e+00 0.0000000e+00 
6.9400000e+00 5.9700000e+00 0.0000000e+00 
6.9400000e+00 5.9900000e+00 0.0000000e+00 
6.9400000e+00 6.0100000e+00 0.0000000e+00 
6.9400000e+00 6.0300000e+00 0.0000000e+00 
6.9666667e+00 5.9700000e+00 0.0000000e+00 
6.9666667e+00 5.9900000e+00 0.0000000e+00 
6.9666667e+00 6.0100000e+00 0.0000000e+00 
6.9666667e+00 6.0300000e+00 0.0000000e+00 
6.9933333e+00 5.9700000e+00 0.0000000e+00 
6.9933333e+00 5.9900000e+00 0.0000000e+00 
6.9933333e+00 6.0100000e+00 0.0000000e+00 
6.9933333e+00 6.0300000e+00 0.0000000e+00 
7.0200000e+00 5.9700000e+00 0.0000000e+00 
7.0200000e+00 5.9900000e+00 0.0000000e+00 
[...]
POINT_DATA 604
FIELD FieldData 2
DISPLACEMENT 3 604  float
0.0000000e+00 0.0000000e+00 0.0000000e+00 
0.0000000e+00 0.0000000e+00 0.0000000e+00 
2.7557389e-04 1.6939568e-04 0.0000000e+00 
8.6526902e-05 1.1004238e-04 0.0000000e+00 
0.0000000e+00 0.0000000e+00 0.0000000e+00 
-8.9730091e-05 1.0879701e-04 0.0000000e+00 
5.5281408e-04 5.4390260e-04 0.0000000e+00 
1.8081041e-04 4.9221772e-04 0.0000000e+00 
0.0000000e+00 0.0000000e+00 0.0000000e+00 
-2.7946949e-04 1.6594777e-04 0.0000000e+00 
-1.9171422e-04 4.8820037e-04 0.0000000e+00 
8.2116092e-04 1.1761988e-03 0.0000000e+00 
-5.6549486e-04 5.3240762e-04 0.0000000e+00 
2.6413449e-04 1.1199407e-03 0.0000000e+00 
-2.9189168e-04 1.1116705e-03 0.0000000e+00 
-8.5170329e-04 1.1517260e-03 0.0000000e+00 
1.0776139e-03 2.0541029e-03 0.0000000e+00 
3.3965924e-04 1.9929995e-03 0.0000000e+00 
-3.9794832e-04 1.9789193e-03 0.0000000e+00 
-1.1394770e-03 2.0122333e-03 0.0000000e+00 
1.3202878e-03 3.1740990e-03 0.0000000e+00 
4.0460174e-04 3.1064183e-03 0.0000000e+00 
-5.1111388e-04 3.0849417e-03 0.0000000e+00 
-1.4311398e-03 3.1098915e-03 0.0000000e+00 
1.5472534e-03 4.5313161e-03 0.0000000e+00 
4.5711870e-04 4.4557615e-03 0.0000000e+00 
-6.3342849e-04 4.4255761e-03 0.0000000e+00 
-1.7286441e-03 4.4409874e-03 0.0000000e+00 
1.7567314e-03 6.1214400e-03 0.0000000e+00 
4.9536399e-04 6.0366198e-03 0.0000000e+00 
-7.6676661e-04 5.9963384e-03 0.0000000e+00 
-2.0338136e-03 6.0007826e-03 0.0000000e+00 
1.9470365e-03 7.9400247e-03 0.0000000e+00 
5.1768562e-04 7.8446254e-03 0.0000000e+00 
-9.1276943e-04 7.7929460e-03 0.0000000e+00 
-2.3484660e-03 7.7850567e-03 0.0000000e+00 
2.1166279e-03 9.9824719e-03 0.0000000e+00 
5.2246144e-04 9.8754344e-03 0.0000000e+00 
-1.0731270e-03 9.8112826e-03 0.0000000e+00 
-2.6742372e-03 9.7901496e-03 0.0000000e+00 
2.2639976e-03 1.2244688e-02 0.0000000e+00 
5.0818856e-04 1.2124789e-02 0.0000000e+00 
-1.2493408e-03 1.2046991e-02 0.0000000e+00 
-3.0126494e-03 1.2011256e-02 0.0000000e+00 
2.3877964e-03 1.4722054e-02 0.0000000e+00 
4.7347169e-04 1.4588392e-02 0.0000000e+00 
-1.4428466e-03 1.4495998e-02 0.0000000e+00 
-3.3651826e-03 1.4444921e-02 0.0000000e+00 
2.4867133e-03 1.7410551e-02 0.0000000e+00 
4.1700704e-04 1.7262039e-02 0.0000000e+00 
-1.6549552e-03 1.7154023e-02 0.0000000e+00 
-3.7331551e-03 1.7086381e-02 0.0000000e+00 
2.5595999e-03 2.0305620e-02 0.0000000e+00 
3.3758773e-04 2.0141501e-02 0.0000000e+00 
-1.8869188e-03 2.0017056e-02 0.0000000e+00 
-4.1178654e-03 1.9932255e-02 0.0000000e+00 
2.6053267e-03 2.3403333e-02 0.0000000e+00 
2.3409270e-04 2.3222648e-02 0.0000000e+00 
-2.1398636e-03 2.3080881e-02 0.0000000e+00 
-4.5204442e-03 2.2977828e-02 0.0000000e+00 
2.6229287e-03 2.6699195e-02 0.0000000e+00 
1.0549405e-04 2.6501322e-02 0.0000000e+00 
-2.4148685e-03 2.6341557e-02 0.0000000e+00 
-4.9420245e-03 2.6219794e-02 0.0000000e+00 
2.6114463e-03 3.0189368e-02 0.0000000e+00 
-4.9158860e-05 2.9973471e-02 0.0000000e+00 
-2.7128875e-03 2.9794938e-02 0.0000000e+00 
-5.3835603e-03 2.9653494e-02 0.0000000e+00 
2.5700852e-03 3.3869431e-02 0.0000000e+00 
-2.3072686e-04 3.3635012e-02 0.0000000e+00 
-3.0348376e-03 3.3437160e-02 0.0000000e+00 
-5.8460307e-03 3.3275702e-02 0.0000000e+00 
2.4980441e-03 3.7735641e-02 0.0000000e+00 
-4.4000226e-04 3.7481976e-02 0.0000000e+00 
-3.3815122e-03 3.7264150e-02 0.0000000e+00 
-6.3302239e-03 3.7081821e-02 0.0000000e+00 
2.3946870e-03 4.1783654e-02 0.0000000e+00 
-6.7769026e-04 4.1510361e-02 0.0000000e+00 
-3.7536778e-03 4.1272123e-02 0.0000000e+00 
-6.8369762e-03 4.1068706e-02 0.0000000e+00 
2.2593559e-03 4.6009821e-02 0.0000000e+00 
-9.4443399e-04 4.5716285e-02 0.0000000e+00 
-4.1519762e-03 4.5457084e-02 0.0000000e+00 
-7.3669258e-03 4.5231831e-02 0.0000000e+00 
2.0915592e-03 5.0409874e-02 0.0000000e+00 
-1.2407938e-03 5.0095814e-02 0.0000000e+00 
-4.5770345e-03 4.9815348e-02 0.0000000e+00 
-7.9207801e-03 4.9568130e-02 0.0000000e+00 
1.8908275e-03 5.4980179e-02 0.0000000e+00 
-1.5673018e-03 5.4645141e-02 0.0000000e+00 
-5.0294201e-03 5.4342972e-02 0.0000000e+00 
-8.4990370e-03 5.4073319e-02 0.0000000e+00 
1.6567517e-03 5.9716930e-02 0.0000000e+00 
-1.9243356e-03 5.9360517e-02 0.0000000e+00 
-5.5095131e-03 5.9036267e-02 0.0000000e+00 
-9.1022772e-03 5.8743719e-02 0.0000000e+00 
1.3890360e-03 6.4616134e-02 0.0000000e+00 
-2.3122983e-03 6.4238203e-02 0.0000000e+00 
-6.0178184e-03 6.3891703e-02 0.0000000e+00 
-9.7309769e-03 6.3576273e-02 0.0000000e+00 
1.0873351e-03 6.9674425e-02 0.0000000e+00 
-2.7315278e-03 6.9274586e-02 0.0000000e+00 
-6.5546521e-03 6.8905514e-02 0.0000000e+00 
-1.0385443e-02 6.8566686e-02 0.0000000e+00 
7.5146324e-04 7.4887807e-02 0.0000000e+00 
-3.1822768e-03 7.4466007e-02 0.0000000e+00 
-7.1203442e-03 7.4074251e-02 0.0000000e+00 
-1.1066107e-02 7.3712136e-02 0.0000000e+00 
3.8118917e-04 8.0253000e-02 0.0000000e+00 
-3.6647685e-03 7.9808929e-02 0.0000000e+00 
-7.7151093e-03 7.9394256e-02 0.0000000e+00 
-1.1773152e-02 7.9008415e-02 0.0000000e+00 
-2.3560228e-05 8.5766107e-02 0.0000000e+00 
-4.1791527e-03 8.5299789e-02 0.0000000e+00 
-8.3391747e-03 8.4862162e-02 0.0000000e+00 
-1.2506908e-02 8.4452784e-02 0.0000000e+00 
-4.6291731e-04 9.1423942e-02 0.0000000e+00 
-4.7255523e-03 9.0935142e-02 0.0000000e+00 
-8.9926535e-03 9.0474403e-02 0.0000000e+00 
-1.3267453e-02 9.0041125e-02 0.0000000e+00 
-9.3685664e-04 9.7222708e-02 0.0000000e+00 
-5.3040200e-03 9.6711519e-02 0.0000000e+00 
-9.6756781e-03 9.6227701e-02 0.0000000e+00 
-1.4055027e-02 9.5770780e-02 0.0000000e+00 
-1.4454202e-03 1.0315931e-01 0.0000000e+00 
-5.9145873e-03 1.0262557e-01 0.0000000e+00 
-1.0388268e-02 1.0211858e-01 0.0000000e+00 
-1.4869610e-02 1.0163772e-01 0.0000000e+00 
-1.9884927e-03 1.0923006e-01 0.0000000e+00 
-6.5572187e-03 1.0867391e-01 0.0000000e+00 
-1.1130471e-02 1.0814386e-01 0.0000000e+00 
-1.5711360e-02 1.0763938e-01 0.0000000e+00 
-2.5660342e-03 1.1543195e-01 0.0000000e+00 
-7.2318628e-03 1.1485330e-01 0.0000000e+00 
-1.1902221e-02 1.1430014e-01 0.0000000e+00 
-1.6580169e-02 1.1377182e-01 0.0000000e+00 
-3.1778484e-03 1.2176139e-01 0.0000000e+00 
-7.9384045e-03 1.2116045e-01 0.0000000e+00 
-1.2703487e-02 1.2058434e-01 0.0000000e+00 
-1.7476121e-02 1.2003255e-01 0.0000000e+00 
-3.8238253e-03 1.2821546e-01 0.0000000e+00 
-8.6767153e-03 1.2759219e-01 0.0000000e+00 
-1.3534126e-02 1.2699316e-01 0.0000000e+00 
-1.8399032e-02 1.2641772e-01 0.0000000e+00 
-4.5036964e-03 1.3479069e-01 0.0000000e+00 
-9.4466066e-03 1.3414534e-01 0.0000000e+00 
-1.4394037e-02 1.3352362e-01 0.0000000e+00 
-1.9348921e-02 1.3292494e-01 0.0000000e+00 
-5.2172291e-03 1.4148417e-01 0.0000000e+00 
-1.0247902e-02 1.4081680e-01 0.0000000e+00 
-1.5283067e-02 1.4017247e-01 0.0000000e+00 
-2.0325553e-02 1.3955060e-01 0.0000000e+00 
-5.9641575e-03 1.4829286e-01 0.0000000e+00 
-1.1080316e-02 1.4760357e-01 0.0000000e+00 
-1.6200937e-02 1.4693676e-01 0.0000000e+00 
-2.1328840e-02 1.4629174e-01 0.0000000e+00 
-6.7441339e-03 1.5521356e-01 0.0000000e+00 
-1.1943607e-02 1.5450266e-01 0.0000000e+00 
-1.7147520e-02 1.5381365e-01 0.0000000e+00 
-2.2358650e-02 1.5314594e-01 0.0000000e+00 
-7.5569088e-03 1.6224361e-01 0.0000000e+00 
-1.2837511e-02 1.6151118e-01 0.0000000e+00 
-1.8122514e-02 1.6080009e-01 0.0000000e+00 
-2.3414646e-02 1.6010965e-01 0.0000000e+00 
-8.4020764e-03 1.6937983e-01 0.0000000e+00 
-1.3761701e-02 1.6862621e-01 0.0000000e+00 
-1.9125683e-02 1.6789335e-01 0.0000000e+00 
-2.4496721e-02 1.6718068e-01 0.0000000e+00 
-9.2793351e-03 1.7661964e-01 0.0000000e+00 
-1.4715855e-02 1.7584494e-01 0.0000000e+00 
-2.0156688e-02 1.7509050e-01 0.0000000e+00 
-2.5604477e-02 1.7435558e-01 0.0000000e+00 
-1.0188227e-02 1.8395997e-01 0.0000000e+00 
-1.5699605e-02 1.8316457e-01 0.0000000e+00 
-2.1215245e-02 1.8238886e-01 0.0000000e+00 
-2.6737759e-02 1.8163224e-01 0.0000000e+00 
-1.1128409e-02 1.9139832e-01 0.0000000e+00 
-1.6712586e-02 1.9058237e-01 0.0000000e+00 
-2.2300972e-02 1.8978561e-01 0.0000000e+00 
-2.7896125e-02 1.8900731e-01 0.0000000e+00 
-1.2099382e-02 1.9893172e-01 0.0000000e+00 
-1.7754390e-02 1.9809563e-01 0.0000000e+00 
-2.3413546e-02 1.9727817e-01 0.0000000e+00 
-2.9079381e-02 1.9647874e-01 0.0000000e+00 
-1.3100770e-02 2.0655777e-01 0.0000000e+00 
-1.8824613e-02 2.0570170e-01 0.0000000e+00 
-2.4552546e-02 2.0486378e-01 0.0000000e+00 
-3.0287043e-02 2.0404329e-01 0.0000000e+00 
-1.4132034e-02 2.1427357e-01 0.0000000e+00 
-1.9922813e-02 2.1339796e-01 0.0000000e+00 
-2.5717613e-02 2.1253997e-01 0.0000000e+00 
-3.1518884e-02 2.1169900e-01 0.0000000e+00 
-1.5192769e-02 2.2207683e-01 0.0000000e+00 
-2.1048553e-02 2.2118188e-01 0.0000000e+00 
-2.6908295e-02 2.2030407e-01 0.0000000e+00 
-3.2774386e-02 2.1944270e-01 0.0000000e+00 
-1.6282408e-02 2.2996475e-01 0.0000000e+00 
-2.2201364e-02 2.2905090e-01 0.0000000e+00 
-2.8124202e-02 2.2815369e-01 0.0000000e+00 
-3.4053293e-02 2.2727251e-01 0.0000000e+00 
-1.7400522e-02 2.3793511e-01 0.0000000e+00 
-2.3380779e-02 2.3700259e-01 0.0000000e+00 
-2.9364854e-02 2.3608624e-01 0.0000000e+00 
-3.5355061e-02 2.3518537e-01 0.0000000e+00 
-1.8546517e-02 2.4598521e-01 0.0000000e+00 
-2.4586302e-02 2.4503447e-01 0.0000000e+00 
-3.0629840e-02 2.4409944e-01 0.0000000e+00 
-3.6679412e-02 2.4317947e-01 0.0000000e+00 
-1.9719890e-02 2.5411285e-01 0.0000000e+00 
-2.5817461e-02 2.5314418e-01 0.0000000e+00 
-3.1918705e-02 2.5219076e-01 0.0000000e+00 
-3.8025807e-02 2.5125197e-01 0.0000000e+00 
-2.0920110e-02 2.6231571e-01 0.0000000e+00 
-2.7073712e-02 2.6132941e-01 0.0000000e+00 
-3.3230913e-02 2.6035793e-01 0.0000000e+00 
-3.9393880e-02 2.5940056e-01 0.0000000e+00 
-2.2146577e-02 2.7059136e-01 0.0000000e+00 
-2.8354570e-02 2.6958790e-01 0.0000000e+00 
-3.4566085e-02 2.6859880e-01 0.0000000e+00 
-4.0783263e-02 2.6762347e-01 0.0000000e+00 
-2.3398839e-02 2.7893780e-01 0.0000000e+00 
-2.9659540e-02 2.7791745e-01 0.0000000e+00 
-3.5923690e-02 2.7691104e-01 0.0000000e+00 
-4.2193370e-02 2.7591787e-01 0.0000000e+00 
-2.4676265e-02 2.8735262e-01 0.0000000e+00 
-3.0988094e-02 2.8631584e-01 0.0000000e+00 
-3.7303282e-02 2.8529257e-01 0.0000000e+00 
-4.3623896e-02 2.8428220e-01 0.0000000e+00 
-2.5978391e-02 2.9583391e-01 0.0000000e+00 
-3.2339718e-02 2.9478097e-01 0.0000000e+00 
-3.8704331e-02 2.9374114e-01 0.0000000e+00 
-4.5074236e-02 2.9271372e-01 0.0000000e+00 
-2.7304571e-02 3.0437932e-01 0.0000000e+00 
-3.3713879e-02 3.0331070e-01 0.0000000e+00 
-4.0126382e-02 3.0225477e-01 0.0000000e+00 
-4.6544070e-02 3.0121093e-01 0.0000000e+00 
-2.8654335e-02 3.1298702e-01 0.0000000e+00 
-3.5110055e-02 3.1190301e-01 0.0000000e+00 
-4.1568894e-02 3.1083129e-01 0.0000000e+00 
-4.8032783e-02 3.0977119e-01 0.0000000e+00 
-3.0027031e-02 3.2165477e-01 0.0000000e+00 
-3.6527705e-02 3.2055584e-01 0.0000000e+00 
-4.3031406e-02 3.1946879e-01 0.0000000e+00 
-4.9540051e-02 3.1839307e-01 0.0000000e+00 
-3.1422186e-02 3.3038081e-01 0.0000000e+00 
-3.7966304e-02 3.2926724e-01 0.0000000e+00 
-4.4513373e-02 3.2816520e-01 0.0000000e+00 
-5.1065250e-02 3.2707400e-01 0.0000000e+00 
-3.2839142e-02 3.3916297e-01 0.0000000e+00 
-3.9425307e-02 3.3803526e-01 0.0000000e+00 
-4.6014329e-02 3.3691866e-01 0.0000000e+00 
-5.2608053e-02 3.3581264e-01 0.0000000e+00 
-3.4277428e-02 3.4799959e-01 0.0000000e+00 
-4.0904187e-02 3.4685800e-01 0.0000000e+00 
-4.7533728e-02 3.4572719e-01 0.0000000e+00 
-5.4167833e-02 3.4460649e-01 0.0000000e+00 
-3.5736385e-02 3.5688857e-01 0.0000000e+00 
-4.2402400e-02 3.5573360e-01 0.0000000e+00 
-4.9071102e-02 3.5458902e-01 0.0000000e+00 
-5.5744263e-02 3.5345429e-01 0.0000000e+00 
-3.7215547e-02 3.6582832e-01 0.0000000e+00 
-4.3919417e-02 3.6466025e-01 0.0000000e+00 
-5.0625902e-02 3.6350222e-01 0.0000000e+00 
-5.7336716e-02 3.6235362e-01 0.0000000e+00 
-3.8714256e-02 3.7481682e-01 0.0000000e+00 
-4.5454693e-02 3.7363613e-01 0.0000000e+00 
-5.2197669e-02 3.7246514e-01 0.0000000e+00 
-5.8944870e-02 3.7130327e-01 0.0000000e+00 
-4.0231992e-02 3.8385252e-01 0.0000000e+00 
-4.7007722e-02 3.8265952e-01 0.0000000e+00 
-5.3785903e-02 3.8147588e-01 0.0000000e+00 
-6.0568135e-02 3.8030107e-01 0.0000000e+00 
-4.1768207e-02 3.9293373e-01 0.0000000e+00 
-4.8577939e-02 3.9172875e-01 0.0000000e+00 
-5.5390046e-02 3.9053280e-01 0.0000000e+00 
-6.2206109e-02 3.8934530e-01 0.0000000e+00 
-4.3322281e-02 4.0205867e-01 0.0000000e+00 
-5.0164846e-02 4.0084217e-01 0.0000000e+00 
-5.7009700e-02 3.9963437e-01 0.0000000e+00 
-6.3858413e-02 3.9843478e-01 0.0000000e+00 
-4.4893782e-02 4.1122596e-01 0.0000000e+00 
-5.1767945e-02 4.0999820e-01 0.0000000e+00 
-5.8644329e-02 4.0877886e-01 0.0000000e+00 
-6.5524440e-02 4.0756734e-01 0.0000000e+00 
-4.6482076e-02 4.2043381e-01 0.0000000e+00 
-5.3386720e-02 4.1919526e-01 0.0000000e+00 
-6.0293493e-02 4.1796480e-01 0.0000000e+00 
-6.7203897e-02 4.1674194e-01 0.0000000e+00 
-4.8086737e-02 4.2968091e-01 0.0000000e+00 
-5.5020675e-02 4.2843183e-01 0.0000000e+00 
-6.1956677e-02 4.2719056e-01 0.0000000e+00 
-6.8896178e-02 4.2595652e-01 0.0000000e+00 
-4.9707136e-02 4.3896556e-01 0.0000000e+00 
-5.6669305e-02 4.3770640e-01 0.0000000e+00 
-6.3633448e-02 4.3645473e-01 0.0000000e+00 
-7.0600998e-02 4.3521009e-01 0.0000000e+00 
-5.1342861e-02 4.4828651e-01 0.0000000e+00 
-5.8332128e-02 4.4701752e-01 0.0000000e+00 
-6.5323304e-02 4.4575576e-01 0.0000000e+00 
-7.2317759e-02 4.4450066e-01 0.0000000e+00 
-5.2993295e-02 4.5764212e-01 0.0000000e+00 
-6.0008648e-02 4.5636375e-01 0.0000000e+00 
-6.7025824e-02 4.5509230e-01 0.0000000e+00 
-7.4046188e-02 4.5382733e-01 0.0000000e+00 
-5.4658038e-02 4.6703124e-01 0.0000000e+00 
-6.1698396e-02 4.6574372e-01 0.0000000e+00 
-6.8740516e-02 4.6446287e-01 0.0000000e+00 
-7.5785697e-02 4.6318817e-01 0.0000000e+00 
-5.6336485e-02 4.7645228e-01 0.0000000e+00 
-6.3400891e-02 4.7515604e-01 0.0000000e+00 
-7.0466972e-02 4.7386620e-01 0.0000000e+00 
-7.7536028e-02 4.7258233e-01 0.0000000e+00 
-5.8028253e-02 4.8590415e-01 0.0000000e+00 
-6.5115675e-02 4.8459944e-01 0.0000000e+00 
-7.2204714e-02 4.8330088e-01 0.0000000e+00 
-7.9296605e-02 4.8200796e-01 0.0000000e+00 
-5.9732750e-02 4.9538536e-01 0.0000000e+00 
-6.6842283e-02 4.9407259e-01 0.0000000e+00 
-7.3953349e-02 4.9276570e-01 0.0000000e+00 
-8.1067184e-02 4.9146428e-01 0.0000000e+00 
-6.1449613e-02 5.0489487e-01 0.0000000e+00 
-6.8580272e-02 5.0357426e-01 0.0000000e+00 
-7.5712412e-02 5.0225931e-01 0.0000000e+00 
-8.2847205e-02 5.0094951e-01 0.0000000e+00 
-6.3178265e-02 5.1443124e-01 0.0000000e+00 
-7.0329187e-02 5.1310321e-01 0.0000000e+00 
-7.7481528e-02 5.1178058e-01 0.0000000e+00 
-8.4636440e-02 5.1046294e-01 0.0000000e+00 
-6.4918300e-02 5.2399349e-01 0.0000000e+00 
-7.2088621e-02 5.2265827e-01 0.0000000e+00 
-7.9260291e-02 5.2132823e-01 0.0000000e+00 
-8.6434388e-02 5.2000297e-01 0.0000000e+00 
-6.6669276e-02 5.3358047e-01 0.0000000e+00 
-7.3858115e-02 5.3223832e-01 0.0000000e+00 
-8.1048251e-02 5.3090113e-01 0.0000000e+00 
-8.8240736e-02 5.2956846e-01 0.0000000e+00 
-6.8430679e-02 5.4319098e-01 0.0000000e+00 
-7.5637280e-02 5.4184227e-01 0.0000000e+00 
-8.2845108e-02 5.4049829e-01 0.0000000e+00 
-9.0055215e-02 5.3915869e-01 0.0000000e+00 
-7.0202204e-02 5.5282415e-01 0.0000000e+00 
-7.7425731e-02 5.5146907e-01 0.0000000e+00 
-8.4650443e-02 5.5011853e-01 0.0000000e+00 
-9.1877321e-02 5.4877210e-01 0.0000000e+00 
-7.1983329e-02 5.6247878e-01 0.0000000e+00 
-7.9223072e-02 5.6111769e-01 0.0000000e+00 
-8.6463926e-02 5.5976092e-01 0.0000000e+00 
-9.3706881e-02 5.5840815e-01 0.0000000e+00 
-7.3773765e-02 5.7215407e-01 0.0000000e+00 
-8.1028930e-02 5.7078715e-01 0.0000000e+00 
-8.8285169e-02 5.6942436e-01 0.0000000e+00 
-9.5543401e-02 5.6806532e-01 0.0000000e+00 
-7.5573005e-02 5.8184886e-01 0.0000000e+00 
-8.2842932e-02 5.8047645e-01 0.0000000e+00 
-9.0113862e-02 5.7910797e-01 0.0000000e+00 
-9.7386723e-02 5.7774313e-01 0.0000000e+00 
-7.7380782e-02 5.9156243e-01 0.0000000e+00 
-8.4664723e-02 5.9018470e-01 0.0000000e+00 
-9.1949634e-02 5.8881073e-01 0.0000000e+00 
-9.9236372e-02 5.8744015e-01 0.0000000e+00 
-7.9196608e-02 6.0129369e-01 0.0000000e+00 
-8.6493950e-02 5.9991096e-01 0.0000000e+00 
-9.3792195e-02 5.9853181e-01 0.0000000e+00 
-1.0109221e-01 5.9715594e-01 0.0000000e+00 
-8.1020236e-02 6.1104198e-01 0.0000000e+00 
-8.8330279e-02 6.0965440e-01 0.0000000e+00 
-9.5641196e-02 6.0827025e-01 0.0000000e+00 
-1.0295378e-01 6.0688915e-01 0.0000000e+00 
-8.2851199e-02 6.2080626e-01 0.0000000e+00 
-9.0173377e-02 6.1941415e-01 0.0000000e+00 
-9.7496364e-02 6.1802528e-01 0.0000000e+00 
-1.0482097e-01 6.1663938e-01 0.0000000e+00 
-8.4689272e-02 6.3058594e-01 0.0000000e+00 
-9.2022929e-02 6.2918943e-01 0.0000000e+00 
-9.9357372e-02 6.2779602e-01 0.0000000e+00 
-1.0669333e-01 6.2640537e-01 0.0000000e+00 
-8.6534007e-02 6.4038004e-01 0.0000000e+00 
-9.3878624e-02 6.3897943e-01 0.0000000e+00 
-1.0122396e-01 6.3758175e-01 0.0000000e+00 
-1.0857078e-01 6.3618676e-01 0.0000000e+00 
-8.8385204e-02 6.5018803e-01 0.0000000e+00 
-9.5740167e-02 6.4878345e-01 0.0000000e+00 
-1.0309584e-01 6.4738165e-01 0.0000000e+00 
-1.1045289e-01 6.4598234e-01 0.0000000e+00 
-9.0242438e-02 6.6000899e-01 0.0000000e+00 
-9.7607262e-02 6.5860071e-01 0.0000000e+00 
-1.0497275e-01 6.5719508e-01 0.0000000e+00 
-1.1233958e-01 6.5579183e-01 0.0000000e+00 
-9.2105470e-02 6.6984241e-01 0.0000000e+00 
-9.9479657e-02 6.6843057e-01 0.0000000e+00 
-1.0685447e-01 6.6702124e-01 0.0000000e+00 
-1.1423051e-01 6.6561419e-01 0.0000000e+00 
-9.3974022e-02 6.7968765e-01 0.0000000e+00 
-1.0135705e-01 6.7827239e-01 0.0000000e+00 
-1.0874069e-01 6.7685951e-01 0.0000000e+00 
-1.1612550e-01 6.7544876e-01 0.0000000e+00 
-9.5847737e-02 6.8954398e-01 0.0000000e+00 
-1.0323922e-01 6.8812554e-01 0.0000000e+00 
-1.1063126e-01 6.8670936e-01 0.0000000e+00 
-1.1802444e-01 6.8529525e-01 0.0000000e+00 
-9.7726481e-02 6.9941102e-01 0.0000000e+00 
-1.0512593e-01 6.9798949e-01 0.0000000e+00 
-1.1252592e-01 6.9657011e-01 0.0000000e+00 
-1.1992698e-01 6.9515264e-01 0.0000000e+00 
-9.9609888e-02 7.0928802e-01 0.0000000e+00 
-1.0701694e-01 7.0786363e-01 0.0000000e+00 
-1.1442449e-01 7.0644128e-01 0.0000000e+00 
-1.2183308e-01 7.0502078e-01 0.0000000e+00 
-1.0149784e-01 7.1917466e-01 0.0000000e+00 
-1.0891205e-01 7.1774748e-01 0.0000000e+00 
-1.1632675e-01 7.1632224e-01 0.0000000e+00 
-1.2374242e-01 7.1489871e-01 0.0000000e+00 
-1.0338999e-01 7.2907023e-01 0.0000000e+00 
-1.1081104e-01 7.2764049e-01 0.0000000e+00 
-1.1823254e-01 7.2621256e-01 0.0000000e+00 
-1.2565498e-01 7.2478632e-01 0.0000000e+00 
-1.0528624e-01 7.3897448e-01 0.0000000e+00 
-1.1271372e-01 7.3754221e-01 0.0000000e+00 
-1.2014164e-01 7.3611169e-01 0.0000000e+00 
-1.2757043e-01 7.3468270e-01 0.0000000e+00 
-1.0718626e-01 7.4888673e-01 0.0000000e+00 
-1.1461989e-01 7.4745216e-01 0.0000000e+00 
-1.2205392e-01 7.4601923e-01 0.0000000e+00 
-1.2948879e-01 7.4458780e-01 0.0000000e+00 
-1.0908998e-01 7.5880679e-01 0.0000000e+00 
-1.1652938e-01 7.5736995e-01 0.0000000e+00 
-1.2396918e-01 7.5593467e-01 0.0000000e+00 
-1.3140976e-01 7.5450078e-01 0.0000000e+00 
-1.1099708e-01 7.6873403e-01 0.0000000e+00 
-1.1844201e-01 7.6729512e-01 0.0000000e+00 
-1.2588730e-01 7.6585767e-01 0.0000000e+00 
-1.3333335e-01 7.6442159e-01 0.0000000e+00 
-1.1290752e-01 7.7866829e-01 0.0000000e+00 
-1.2035763e-01 7.7722733e-01 0.0000000e+00 
-1.2780810e-01 7.7578777e-01 0.0000000e+00 
-1.3525928e-01 7.7434946e-01 0.0000000e+00 
-1.1482099e-01 7.8860900e-01 0.0000000e+00 
-1.2227607e-01 7.8716618e-01 0.0000000e+00 
-1.2973148e-01 7.8572467e-01 0.0000000e+00 
-1.3718758e-01 7.8428438e-01 0.0000000e+00 
-1.1673746e-01 7.9855604e-01 0.0000000e+00 
-1.2419721e-01 7.9711136e-01 0.0000000e+00 
-1.3165729e-01 7.9566795e-01 0.0000000e+00 
-1.3911799e-01 7.9422565e-01 0.0000000e+00 
-1.1865667e-01 8.0850887e-01 0.0000000e+00 
-1.2612088e-01 8.0706252e-01 0.0000000e+00 
-1.3358541e-01 8.0561735e-01 0.0000000e+00 
-1.4105056e-01 8.0417328e-01 0.0000000e+00 
-1.2057853e-01 8.1846738e-01 0.0000000e+00 
-1.2804700e-01 8.1701937e-01 0.0000000e+00 
-1.3551576e-01 8.1557251e-01 0.0000000e+00 
-1.4298507e-01 8.1412669e-01 0.0000000e+00 
-1.2250293e-01 8.2843128e-01 0.0000000e+00 
-1.2997541e-01 8.2698167e-01 0.0000000e+00 