# vtk DataFile Version 4.0
vtk output
ASCII
DATASET UNSTRUCTURED_GRID
POINTS 604 float
5.5000000e+00 5.9700000e+00 0.0000000e+00 
5.5000000e+00 5.9900000e+00 0.0000000e+00 
5.5266667e+00 5.9700000e+00 0.0000000e+00 
5.5266667e+00 5.9900000e+00 0.0000000e+00 
5.5000000e+00 6.0100000e+00 0.0000000e+00 
5.5266667e+00 6.0100000e+00 0.0000000e+00 
5.5533333e+00 5.9700000e+00 0.0000000e+00 
5.5533333e+00 5.9900000e+00 0.0000000e+00 
5.5000000e+00 6.0300000e+00 0.0000000e+00 
5.5266667e+00 6.0300000e+00 0.0000000e+00 
5.5533333e+00 6.0100000e+00 0.0000000e+00 
5.5800000e+00 5.9700000e+00 0.0000000e+00 
5.5533333e+00 6.0300000e+00 0.0000000e+00 
5.5800000e+00 5.9900000e+00 0.0000000e+00 
5.5800000e+00 6.0100000e+00 0.0000000e+00 
5.5800000e+00 6.0300000e+00 0.0000000e+00 
5.6066667e+00 5.9700000e+00 0.0000000e+00 
5.6066667e+00 5.9900000e+00 0.0000000e+00 
5.6066667e+00 6.0100000e+00 0.0000000e+00 
5.6066667e+00 6.0300000e+00 0.0000000e+00 
5.6333333e+00 5.9700000e+00 0.0000000e+00 
5.6333333e+00 5.9900000e+00 0.0000000e+00 
5.6333333e+00 6.0100000e+00 0.0000000e+00 
5.6333333e+00 6.0300000e+00 0.0000000e+00 
5.6600000e+00 5.9700000e+00 0.0000000e+00 
5.6600000e+00 5.9900000e+00 0.0000000e+00 
5.6600000e+00 6.0100000e+00 0.0000000e+00 
5.6600000e+00 6.0300000e+00 0.0000000e+00 
5.6866667e+00 5.9700000e+00 0.0000000e+00 
5.6866667e+00 5.9900000e+00 0.0000000e+00 
5.6866667e+00 6.0100000e+00 0.0000000e+00 
5.6866667e+00 6.0300000e+00 0.0000000e+00 
5.7133333e+00 5.9700000e+00 0.0000000e+00 
5.7133333e+00 5.9900000e+00 0.0000000e+00 
5.7133333e+00 6.0100000e+00 0.0000000e+00 
5.7133333e+00 6.0300000e+00 0.0000000e+00 
5.7400000e+00 5.9700000e+00 0.0000000e+00 
5.7400000e+00 5.9900000e+00 0.0000000e+00 
5.7400000e+00 6.0100000e+00 0.0000000e+00 
5.7400000e+00 6.0300000e+00 0.0000000e+00 
5.7666667e+00 5.9700000e+00 0.0000000e+00 
5.7666667e+00 5.9900000e+00 0.0000000e+00 
5.7666667e+00 6.0100000e+00 0.0000000e+00 
5.7666667e+00 6.0300000e+00 0.0000000e+00 
5.7933333e+00 5.9700000e+00 0.0000000e+00 
5.7933333e+00 5.9900000e+00 0.0000000e+00 
5.7933333e+00 6.0100000e+00 0.0000000e+00 
5.7933333e+00 6.0300000e+00 0.0000000e+00 
5.8200000e+00 5.9700000e+00 0.0000000e+00 
5.8200000e+00 5.9900000e+00 0.0000000e+00 
5.8200000e+00 6.0100000e+00 0.0000000e+00 
5.8200000e+00 6.0300000e+00 0.0000000e+00 
5.8466667e+00 5.9700000e+00 0.0000000e+00 
5.8466667e+00 5.9900000e+00 0.0000000e+00 
5.8466667e+00 6.0100000e+00 0.0000000e+00 
5.8466667e+00 6.0300000e+00 0.0000000e+00 
5.8733333e+00 5.9700000e+00 0.0000000e+00 
5.8733333e+00 5.9900000e+00 0.0000000e+00 
5.8733333e+00 6.0100000e+00 0.0000000e+00 
5.8733333e+00 6.0300000e+00 0.0000000e+00 
5.9000000e+00 5.9700000e+00 0.0000000e+00 
5.9000000e+00 5.9900000e+00 0.0000000e+00 
5.9000000e+00 6.0100000e+00 0.0000000e+00 
5.9000000e+00 6.0300000e+00 0.0000000e+00 
5.9266667e+00 5.9700000e+00 0.0000000e+00 
5.9266667e+00 5.9900000e+00 0.0000000e+00 
5.9266667e+00 6.0100000e+00 0.0000000e+00 
5.9266667e+00 6.0300000e+00 0.0000000e+00 
5.9533333e+00 5.9700000e+00 0.0000000e+00 
5.9533333e+00 5.9900000e+00 0.0000000e+00 
5.9533333e+00 6.0100000e+00 0.0000000e+00 
5.9533333e+00 6.0300000e+00 0.0000000e+00 
5.9800000e+00 5.9700000e+00 0.0000000e+00 
5.9800000e+00 5.9900000e+00 0.0000000e+00 
5.9800000e+00 6.0100000e+00 0.0000000e+00 
5.9800000e+00 6.0300000e+00 0.0000000e+00 
6.0066667e+00 5.9700000e+00 0.0000000e+00 
6.0066667e+00 5.9900000e+00 0.0000000e+00 
6.0066667e+00 6.0100000e+00 0.0000000e+00 
6.0066667e+00 6.0300000e+00 0.0000000e+00 
6.0333333e+00 5.9700000e+00 0.0000000e+00 
6.0333333e+00 5.9900000e+00 0.0000000e+00 
6.0333333e+00 6.0100000e+00 0.0000000e+00 
6.0333333e+00 6.0300000e+00 0.0000000e+00 
6.0600000e+00 5.9700000e+00 0.0000000e+00 
6.0600000e+00 5.9900000e+00 0.0000000e+00 
6.0600000e+00 6.0100000e+00 0.0000000e+00 
6.0600000e+00 6.0300000e+00 0.0000000e+00 
6.0866667e+00 5.9700000e+00 0.0000000e+00 
6.0866667e+00 5.9900000e+00 0.0000000e+00 
6.0866667e+00 6.0100000e+00 0.0000000e+00 
6.0866667e+00 6.0300000e+00 0.0000000e+00 
6.1133333e+00 5.9700000e+00 0.0000000e+00 
6.1133333e+00 5.9900000e+00 0.0000000e+00 
6.1133333e+00 6.0100000e+00 0.0000000e+00 
6.1133333e+00 6.0300000e+00 0.0000000e+00 
6.1400000e+00 5.9700000e+00 0.0000000e+00 
6.1400000e+00 5.9900000e+00 0.0000000e+00 
6.1400000e+00 6.0100000e+00 0.0000000e+00 
6.1400000e+00 6.0300000e+00 0.0000000e+00 
6.1666667e+00 5.9700000e+00 0.0000000e+00 
6.1666667e+00 5.9900000e+00 0.0000000e+00 
6.1666667e+00 6.0100000e+00 0.0000000e+00 
6.1666667e+00 6.0300000e+00 0.0000000e+00 
6.1933333e+00 5.9700000e+00 0.0000000e+00 
6.1933333e+00 5.9900000e+00 0.0000000e+00 
6.1933333e+00 6.0100000e+00 0.0000000e+00 
6.1933333e+00 6.0300000e+00 0.0000000e+00 
6.2200000e+00 5.9700000e+00 0.0000000e+00 
6.2200000e+00 5.9900000e+00 0.0000000e+00 
6.2200000e+00 6.0100000e+00 0.0000000e+00 
6.2200000e+00 6.0300000e+00 0.0000000e+00 
6.2466667e+00 5.9700000e+00 0.0000000e+00 
6.2466667e+00 5.9900000e+00 0.0000000e+00 
6.2466667e+00 6.0100000e+00 0.0000000e+00 
6.2466667e+00 6.0300000e+00 0.0000000e+00 
6.2733333e+00 5.9700000e+00 0.0000000e+00 
6.2733333e+00 5.9900000e+00 0.0000000e+00 
6.2733333e+00 6.0100000e+00 0.0000000e+00 
6.2733333e+00 6.0300000e+00 0.0000000e+00 
6.3000000e+00 5.9700000e+00 0.0000000e+00 
6.3000000e+00 5.9900000e+00 0.0000000e+00 
6.3000000e+00 6.0100000e+00 0.0000000e+00 
6.3000000e+00 6.0300000e+00 0.0000000e+00 
6.3266667e+00 5.9700000e+00 0.0000000e+00 
6.3266667e+00 5.9900000e+00 0.0000000e+00 
6.3266667e+00 6.0100000e+00 0.0000000e+00 
6.3266667e+00 6.0300000e+00 0.0000000e+00 
6.3533333e+00 5.9700000e+00 0.0000000e+00 
6.3533333e+00 5.9900000e+00 0.0000000e+00 
6.3533333e+00 6.0100000e+00 0.0000000e+00 
6.3533333e+00 6.0300000e+00 0.0000000e+00 
6.3800000e+00 5.9700000e+00 0.0000000e+00 
6.3800000e+00 5.9900000e+00 0.0000000e+00 
6.3800000e+00 6.0100000e+00 0.0000000e+00 
6.3800000e+00 6.0300000e+00 0.0000000e+00 
6.4066667e+00 5.9700000e+00 0.0000000e+00 
6.4066667e+00 5.9900000e+00 0.0000000e+00 
6.4066667e+00 6.0100000e+00 0.0000000e+00 
6.4066667e+00 6.0300000e+00 0.0000000e+00 
6.4333333e+00 5.9700000e+00 0.0000000e+00 
6.4333333e+00 5.9900000e+00 0.0000000e+00 
6.4333333e+00 6.0100000e+00 0.0000000e+00 
6.4333333e+00 6.0300000e+00 0.0000000e+00 
6.4600000e+00 5.9700000e+00 0.0000000e+00 
6.4600000e+00 5.9900000e+00 0.0000000e+00 
6.4600000e+00 6.0100000e+00 0.0000000e+00 
6.4600000e+00 6.0300000e+00 0.0000000e+00 
6.4866667e+00 5.9700000e+00 0.0000000e+00 
6.4866667e+00 5.9900000e+00 0.0000000e+00 
6.4866667e+00 6.0100000e+00 0.0000000e+00 
6.4866667e+00 6.0300000e+00 0.0000000e+00 
6.5133333e+00 5.9700000e+00 0.0000000e+00 
6.5133333e+00 5.9900000e+00 0.0000000e+00 
6.5133333e+00 6.0100000e+00 0.0000000e+00 
6.5133333e+00 6.0300000e+00 0.0000000e+00 
6.5400000e+00 5.9700000e+00 0.0000000e+00 
6.5400000e+00 5.9900000e+00 0.0000000e+00 
6.5400000e+00 6.0100000e+00 0.0000000e+00 
6.5400000e+00 6.0300000e+00 0.0000000e+00 
6.5666667e+00 5.9700000e+00 0.0000000e+00 
6.5666667e+00 5.9900000e+00 0.0000000e+00 
6.5666667e+00 6.0100000e+00 0.0000000e+00 
6.5666667e+00 6.0300000e+00 0.0000000e+00 
6.5933333e+00 5.9700000e+00 0.0000000e+00 
6.5933333e+00 5.9900000e+00 0.0000000e+00 
6.5933333e+00 6.0100000e+00 0.0000000e+00 
6.5933333e+00 6.0300000e+00 0.0000000e+00 
6.6200000e+00 5.9700000e+00 0.0000000e+00 
6.6200000e+00 5.9900000e+00 0.0000000e+00 
6.6200000e+00 6.0100000e+00 0.0000000e+00 
6.6200000e+00 6.0300000e+00 0.0000000e+00 
6.6466667e+00 5.9700000e+00 0.0000000e+00 
6.6466667e+00 5.9900000e+00 0.0000000e+00 
6.6466667e+00 6.0100000e+00 0.0000000e+00 
6.6466667e+00 6.0300000e+00 0.0000000e+00 
6.6733333e+00 5.9700000e+00 0.0000000e+00 
6.6733333e+00 5.9900000e+00 0.0000000e+00 
6.6733333e+00 6.0100000e+00 0.0000000e+00 
6.6733333e+00 6.0300000e+00 0.0000000e+00 
6.7000000e+00 5.9700000e+00 0.0000000e+00 
6.7000000e+00 5.9900000e+00 0.0000000e+00 
6.7000000e+00 6.0100000e+00 0.0000000e+00 
6.7000000e+00 6.0300000e+00 0.0000000e+00 
6.7266667e+00 5.9700000e+00 0.0000000e+00 
6.7266667e+00 5.9900000e+00 0.0000000e+00 
6.7266667e+00 6.0100000e+00 0.0000000e+00 
6.7266667e+00 6.0300000e+00 0.0000000e+00 
6.7533333e+00 5.9700000e+00 0.0000000e+00 
6.7533333e+00 5.9900000e+00 0.0000000e+00 
6.7533333e+00 6.0100000e+00 0.0000000e+00 
6.7533333e+00 6.0300000e+00 0.0000000e+00 
6.7800000e+00 5.9700000e+00 0.0000000e+00 
6.7800000e+00 5.9900000e+00 0.0000000e+00 
6.7800000e+00 6.0100000e+00 0.0000000e+00 
6.7800000e+00 6.0300000e+00 0.0000000e+00 
6.8066667e+00 5.9700000e+00 0.0000000e+00 
6.8066667e+00 5.9900000e+00 0.0000000e+00 
6.8066667e+00 6.0100000e+00 0.0000000e+00 
6.8066667e+00 6.0300000e+00 0.0000000e+00 
6.8333333e+00 5.9700000e+00 0.0000000e+00 
6.8333333e+00 5.9900000e+00 0.0000000e+00 
6.8333333e+00 6.0100000e+00 0.0000000e+00 
6.8333333e+00 6.0300000e+00 0.0000000e+00 
6.8600000e+00 5.9700000e+00 0.0000000e+00 
6.8600000e+00 5.9900000e+00 0.0000000e+00 
6.8600000e+00 6.0100000e+00 0.0000000e+00 
6.8600000e+00 6.0300000e+00 0.0000000e+00 
6.8866667e+00 5.9700000e+00 0.0000000e+00 
6.8866667e+00 5.9900000e+00 0.0000000e+00 
6.8866667e+00 6.0100000e+00 0.0000000e+00 
6.8866667e+00 6.0300000e+00 0.0000000e+00 
6.9133333e+00 5.9700000e+00 0.0000000e+00 
6.9133333e+00 5.9900000e+00 0.0000000e+00 
6.9133333e+00 6.0100000e+00 0.0000000e+00 
6.9133333e+00 6.0300000e+00 0.0000000e+00 
6.9400000e+00 5.9700000e+00 0.0000000e+00 
6.9400000e+00 5.9900000e+00 0.0000000e+00 
6.9400000e+00 6.0100000e+00 0.0000000e+00 
6.9400000e+00 6.0300000e+00 0.0000000e+00 
6.9666667e+00 5.9700000e+00 0.0000000e+00 
6.9666667e+00 5.9900000e+00 0.0000000e+00 
6.9666667e+00 6.0100000e+00 0.0000000e+00 
6.9666667e+00 6.0300000e+00 0.0000000e+00 
6.9933333e+00 5.9700000e+00 0.0000000e+00 
6.9933333e+00 5.9900000e+00 0.0000000e+00 
6.9933333e+00 6.0100000e+00 0.0000000e+00 
6.9933333e+00 6.0300000e+00 0.0000000e+00 
7.0200000e+00 5.9700000e+00 0.0000000e+00 
7.0200000e+00 5.9900000e+00 0.0000000e+00 
[...]
POINT_DATA 604
FIELD FieldData 2
DISPLACEMENT 3 604  float
0.0000000e+00 0.0000000e+00 0.0000000e+00 
0.0000000e+00 0.0000000e+00 0.0000000e+00 
-4.4212488e-08 -2.8169027e-08 0.0000000e+00 
-1.4536003e-08 -1.8428441e-08 0.0000000e+00 
0.0000000e+00 0.0000000e+00 0.0000000e+00 
1.3965342e-08 -1.8956868e-08 0.0000000e+00 
-8.8771202e-08 -8.1702950e-08 0.0000000e+00 
-2.8637686e-08 -7.9375211e-08 0.0000000e+00 
0.0000000e+00 0.0000000e+00 0.0000000e+00 
4.6264744e-08 -2.8047698e-08 0.0000000e+00 
3.1333824e-08 -8.3173576e-08 0.0000000e+00 
-1.3137223e-07 -1.9034185e-07 0.0000000e+00 
9.1911912e-08 -9.6084991e-08 0.0000000e+00 
-4.1732640e-08 -1.8211490e-07 0.0000000e+00 
4.7133968e-08 -1.8329088e-07 0.0000000e+00 
1.3664464e-07 -1.9009606e-07 0.0000000e+00 
-1.7224303e-07 -3.2257100e-07 0.0000000e+00 
-5.4567661e-08 -3.2060856e-07 0.0000000e+00 
6.2404828e-08 -3.2400923e-07 0.0000000e+00 
1.7999456e-07 -3.3654610e-07 0.0000000e+00 
-2.1145648e-07 -5.0588144e-07 0.0000000e+00 
-6.7013267e-08 -4.9824186e-07 0.0000000e+00 
7.7034682e-08 -4.9903564e-07 0.0000000e+00 
2.2199772e-07 -5.0534019e-07 0.0000000e+00 
-2.4876364e-07 -7.1009186e-07 0.0000000e+00 
-7.9163497e-08 -7.0823073e-07 0.0000000e+00 
9.0968684e-08 -7.1255404e-07 0.0000000e+00 
2.6293257e-07 -7.2415078e-07 0.0000000e+00 
-2.8566162e-07 -9.5571249e-07 0.0000000e+00 
-8.8628916e-08 -9.5406976e-07 0.0000000e+00 
1.0662470e-07 -9.5838298e-07 0.0000000e+00 
3.0134658e-07 -9.6969384e-07 0.0000000e+00 
-3.2013589e-07 -1.2413431e-06 0.0000000e+00 
-9.9834692e-08 -1.2344654e-06 0.0000000e+00 
1.1957655e-07 -1.2352447e-06 0.0000000e+00 
3.3933465e-07 -1.2407929e-06 0.0000000e+00 
-3.5360078e-07 -1.5441651e-06 0.0000000e+00 
-1.1040544e-07 -1.5433817e-06 0.0000000e+00 
1.3223163e-07 -1.5467237e-06 0.0000000e+00 
3.7552747e-07 -1.5579182e-06 0.0000000e+00 
-3.8592295e-07 -1.8914698e-06 0.0000000e+00 
-1.2038754e-07 -1.8849867e-06 0.0000000e+00 
1.4455502e-07 -1.8861291e-06 0.0000000e+00 
4.1010075e-07 -1.8911049e-06 0.0000000e+00 
-4.1686009e-07 -2.2537956e-06 0.0000000e+00 
-1.2992715e-07 -2.2535095e-06 0.0000000e+00 
1.5641498e-07 -2.2568441e-06 0.0000000e+00 
4.4334495e-07 -2.2675855e-06 0.0000000e+00 
-4.4646118e-07 -2.6581380e-06 0.0000000e+00 
-1.3902346e-07 -2.6521198e-06 0.0000000e+00 
1.6782831e-07 -2.6532570e-06 0.0000000e+00 
4.7525012e-07 -2.6577626e-06 0.0000000e+00 
-4.7475645e-07 -3.0751306e-06 0.0000000e+00 
-1.4768701e-07 -3.0752806e-06 0.0000000e+00 
1.7879768e-07 -3.0785966e-06 0.0000000e+00 
5.0583764e-07 -3.0888543e-06 0.0000000e+00 
-5.0173866e-07 -3.5317379e-06 0.0000000e+00 
-1.5591513e-07 -3.5261783e-06 0.0000000e+00 
1.8934253e-07 -3.5273148e-06 0.0000000e+00 
5.3515073e-07 -3.5313751e-06 0.0000000e+00 
-5.2747656e-07 -3.9987638e-06 0.0000000e+00 
-1.6371345e-07 -3.9993433e-06 0.0000000e+00 
1.9946950e-07 -4.0026514e-06 0.0000000e+00 
5.6317426e-07 -4.0124489e-06 0.0000000e+00 
-5.5191286e-07 -4.5030933e-06 0.0000000e+00 
-1.7108892e-07 -4.4979802e-06 0.0000000e+00 
2.0918882e-07 -4.4991198e-06 0.0000000e+00 
5.8999834e-07 -4.5027534e-06 0.0000000e+00 
-5.7516624e-07 -5.0156671e-06 0.0000000e+00 
-1.7803589e-07 -5.0166718e-06 0.0000000e+00 
2.1851717e-07 -5.0199835e-06 0.0000000e+00 
6.1555813e-07 -5.0293459e-06 0.0000000e+00 
-5.9713300e-07 -5.5633270e-06 0.0000000e+00 
-1.8456696e-07 -5.5586545e-06 0.0000000e+00 
2.2745908e-07 -5.5598031e-06 0.0000000e+00 
6.3998711e-07 -5.5630339e-06 0.0000000e+00 
-6.1799518e-07 -6.1171788e-06 0.0000000e+00 
-1.9067349e-07 -6.1185573e-06 0.0000000e+00 
2.3603284e-07 -6.1218667e-06 0.0000000e+00 
6.6315460e-07 -6.1307702e-06 0.0000000e+00 
-6.3736415e-07 -6.7039721e-06 0.0000000e+00 
-1.9650391e-07 -6.6998122e-06 0.0000000e+00 
2.4410661e-07 -6.7006141e-06 0.0000000e+00 
6.8547618e-07 -6.7035419e-06 0.0000000e+00 
-6.5527041e-07 -7.2946765e-06 0.0000000e+00 
-2.0208302e-07 -7.2960886e-06 0.0000000e+00 
2.5166159e-07 -7.3003587e-06 0.0000000e+00 
7.0696820e-07 -7.3084853e-06 0.0000000e+00 
-6.7294105e-07 -7.9094345e-06 0.0000000e+00 
-2.0509139e-07 -7.9110773e-06 0.0000000e+00 
2.6104400e-07 -7.9153384e-06 0.0000000e+00 
7.2642938e-07 -7.9233022e-06 0.0000000e+00 
-6.8836978e-07 -8.5472980e-06 0.0000000e+00 
-2.0985025e-07 -8.5437518e-06 0.0000000e+00 
2.6793101e-07 -8.5445968e-06 0.0000000e+00 
7.4592959e-07 -8.5469673e-06 0.0000000e+00 
-7.0322357e-07 -9.1860115e-06 0.0000000e+00 
-2.1399162e-07 -9.1884762e-06 0.0000000e+00 
2.7471357e-07 -9.1918731e-06 0.0000000e+00 
7.6383629e-07 -9.1999016e-06 0.0000000e+00 
-7.1700912e-07 -9.8528597e-06 0.0000000e+00 
-2.1763534e-07 -9.8496183e-06 0.0000000e+00 
2.8128020e-07 -9.8508536e-06 0.0000000e+00 
7.8066849e-07 -9.8527792e-06 0.0000000e+00 
-7.2983217e-07 -1.0518751e-05 0.0000000e+00 
-2.2084660e-07 -1.0521699e-05 0.0000000e+00 
2.8757388e-07 -1.0525155e-05 0.0000000e+00 
7.9634936e-07 -1.0532926e-05 0.0000000e+00 
-7.4138401e-07 -1.1211032e-05 0.0000000e+00 
-2.2369622e-07 -1.1208167e-05 0.0000000e+00 
2.9353352e-07 -1.1209435e-05 0.0000000e+00 
8.1121384e-07 -1.1211006e-05 0.0000000e+00 
-7.5202938e-07 -1.1900313e-05 0.0000000e+00 
-2.2611703e-07 -1.1903695e-05 0.0000000e+00 
2.9923443e-07 -1.1907203e-05 0.0000000e+00 
8.2492197e-07 -1.1914686e-05 0.0000000e+00 
-7.6141881e-07 -1.2614286e-05 0.0000000e+00 
-2.2817915e-07 -1.2611795e-05 0.0000000e+00 
3.0461520e-07 -1.2613100e-05 0.0000000e+00 
8.3785100e-07 -1.2614333e-05 0.0000000e+00 
-7.6993512e-07 -1.3323309e-05 0.0000000e+00 
-2.2981343e-07 -1.3327125e-05 0.0000000e+00 
3.0975354e-07 -1.3330696e-05 0.0000000e+00 
8.4964014e-07 -1.3337909e-05 0.0000000e+00 
-7.7720713e-07 -1.4055387e-05 0.0000000e+00 
-2.3109726e-07 -1.4053263e-05 0.0000000e+00 
3.1458019e-07 -1.4054608e-05 0.0000000e+00 
8.6068994e-07 -1.4055512e-05 0.0000000e+00 
-7.8363762e-07 -1.4780589e-05 0.0000000e+00 
-2.3195548e-07 -1.4784838e-05 0.0000000e+00 
3.1917932e-07 -1.4788481e-05 0.0000000e+00 
8.7061832e-07 -1.4795442e-05 0.0000000e+00 
-7.8884667e-07 -1.5527269e-05 0.0000000e+00 
-2.3246642e-07 -1.5525510e-05 0.0000000e+00 
3.2348052e-07 -1.5526897e-05 0.0000000e+00 
8.7983628e-07 -1.5527489e-05 0.0000000e+00 
-7.9326522e-07 -1.6265250e-05 0.0000000e+00 
-2.3256054e-07 -1.6269875e-05 0.0000000e+00 
3.2756280e-07 -1.6273577e-05 0.0000000e+00 
8.8793312e-07 -1.6280246e-05 0.0000000e+00 
-7.9625042e-07 -1.7023163e-05 0.0000000e+00 
-2.3245679e-07 -1.7021851e-05 0.0000000e+00 
3.3121549e-07 -1.7022890e-05 0.0000000e+00 
8.9558439e-07 -1.7023271e-05 0.0000000e+00 
-7.9802889e-07 -1.7770290e-05 0.0000000e+00 
-2.3212841e-07 -1.7774917e-05 0.0000000e+00 
3.3447270e-07 -1.7779728e-05 0.0000000e+00 
9.0258430e-07 -1.7785746e-05 0.0000000e+00 
-7.9977638e-07 -1.8528432e-05 0.0000000e+00 
-2.2909651e-07 -1.8533330e-05 0.0000000e+00 
3.3983511e-07 -1.8538152e-05 0.0000000e+00 
9.0779142e-07 -1.8544129e-05 0.0000000e+00 
-7.9935304e-07 -1.9297074e-05 0.0000000e+00 
-2.2803805e-07 -1.9296261e-05 0.0000000e+00 
3.4262418e-07 -1.9297395e-05 0.0000000e+00 
9.1340253e-07 -1.9297329e-05 0.0000000e+00 
-7.9864116e-07 -2.0052112e-05 0.0000000e+00 
-2.2637618e-07 -2.0057852e-05 0.0000000e+00 
3.4543988e-07 -2.0061796e-05 0.0000000e+00 
9.1755830e-07 -2.0068011e-05 0.0000000e+00 
-7.9703082e-07 -2.0823754e-05 0.0000000e+00 
-2.2427926e-07 -2.0823161e-05 0.0000000e+00 
3.4812012e-07 -2.0824730e-05 0.0000000e+00 
9.2090823e-07 -2.0824287e-05 0.0000000e+00 
-7.9469420e-07 -2.1580232e-05 0.0000000e+00 
-2.2179471e-07 -2.1586436e-05 0.0000000e+00 
3.5063008e-07 -2.1590477e-05 0.0000000e+00 
9.2330305e-07 -2.1596572e-05 0.0000000e+00 
-7.9127568e-07 -2.2352094e-05 0.0000000e+00 
-2.1902507e-07 -2.2351794e-05 0.0000000e+00 
3.5287632e-07 -2.2353408e-05 0.0000000e+00 
9.2514004e-07 -2.2352682e-05 0.0000000e+00 
-7.8718049e-07 -2.3107008e-05 0.0000000e+00 
-2.1588507e-07 -2.3113612e-05 0.0000000e+00 
3.5495738e-07 -2.3117734e-05 0.0000000e+00 
9.2603907e-07 -2.3123666e-05 0.0000000e+00 
-7.8205715e-07 -2.3876128e-05 0.0000000e+00 
-2.1246799e-07 -2.3876114e-05 0.0000000e+00 
3.5678982e-07 -2.3877774e-05 0.0000000e+00 
9.2639605e-07 -2.3876783e-05 0.0000000e+00 
-7.7628601e-07 -2.4626650e-05 0.0000000e+00 
-2.0869608e-07 -2.4633640e-05 0.0000000e+00 
3.5846575e-07 -2.4637846e-05 0.0000000e+00 
9.2585850e-07 -2.4643629e-05 0.0000000e+00 
-7.6953916e-07 -2.5390262e-05 0.0000000e+00 
-2.0466181e-07 -2.5390521e-05 0.0000000e+00 
3.5990347e-07 -2.5392224e-05 0.0000000e+00 
9.2480180e-07 -2.5390979e-05 0.0000000e+00 
-7.6217516e-07 -2.6133690e-05 0.0000000e+00 
-2.0029039e-07 -2.6141049e-05 0.0000000e+00 
3.6119317e-07 -2.6145342e-05 0.0000000e+00 
9.2289859e-07 -2.6150986e-05 0.0000000e+00 
-7.5390233e-07 -2.6889154e-05 0.0000000e+00 
-1.9566637e-07 -2.6889678e-05 0.0000000e+00 
3.6226220e-07 -2.6891422e-05 0.0000000e+00 
9.2049093e-07 -2.6889945e-05 0.0000000e+00 
-7.4506864e-07 -2.7623011e-05 0.0000000e+00 
-1.9073067e-07 -2.7630659e-05 0.0000000e+00 
3.6318599e-07 -2.7635015e-05 0.0000000e+00 
9.1726583e-07 -2.7640468e-05 0.0000000e+00 
-7.3513069e-07 -2.8367889e-05 0.0000000e+00 
-1.8571770e-07 -2.8368761e-05 0.0000000e+00 
3.6374384e-07 -2.8370100e-05 0.0000000e+00 
9.1381947e-07 -2.8368507e-05 0.0000000e+00 
-7.2415544e-07 -2.9089492e-05 0.0000000e+00 
-1.8063216e-07 -2.9096988e-05 0.0000000e+00 
3.6394369e-07 -2.9102565e-05 0.0000000e+00 
9.1012509e-07 -2.9107414e-05 0.0000000e+00 
-7.1366182e-07 -2.9812769e-05 0.0000000e+00 
-1.7267129e-07 -2.9820476e-05 0.0000000e+00 
3.6662663e-07 -2.9826079e-05 0.0000000e+00 
9.0471941e-07 -2.9830935e-05 0.0000000e+00 
-7.0127826e-07 -3.0537520e-05 0.0000000e+00 
-1.6711641e-07 -3.0538702e-05 0.0000000e+00 
3.6650878e-07 -3.0540112e-05 0.0000000e+00 
9.0007420e-07 -3.0538207e-05 0.0000000e+00 
-6.8890963e-07 -3.1236965e-05 0.0000000e+00 
-1.6109398e-07 -3.1245429e-05 0.0000000e+00 
3.6650429e-07 -3.1249995e-05 0.0000000e+00 
8.9433459e-07 -3.1255240e-05 0.0000000e+00 
-6.7616507e-07 -3.1945503e-05 0.0000000e+00 
-1.5474898e-07 -3.1946757e-05 0.0000000e+00 
3.6648109e-07 -3.1948633e-05 0.0000000e+00 
8.8795131e-07 -3.1946441e-05 0.0000000e+00 
-6.6295960e-07 -3.2627844e-05 0.0000000e+00 
-1.4818867e-07 -3.2636625e-05 0.0000000e+00 
3.6635199e-07 -3.2641263e-05 0.0000000e+00 
8.8106225e-07 -3.2646488e-05 0.0000000e+00 
-6.4920643e-07 -3.3318661e-05 0.0000000e+00 
-1.4148309e-07 -3.3320061e-05 0.0000000e+00 
3.6606547e-07 -3.3321960e-05 0.0000000e+00 
8.7381377e-07 -3.3319596e-05 0.0000000e+00 
-6.3506137e-07 -3.3982188e-05 0.0000000e+00 
-1.3459563e-07 -3.3991194e-05 0.0000000e+00 
3.6567796e-07 -3.3995879e-05 0.0000000e+00 
8.6610766e-07 -3.4001033e-05 0.0000000e+00 
-6.2046180e-07 -3.4653632e-05 0.0000000e+00 
-1.2757907e-07 -3.4655164e-05 0.0000000e+00 
3.6515653e-07 -3.4657082e-05 0.0000000e+00 
8.5806604e-07 -3.4654574e-05 0.0000000e+00 
-6.0551722e-07 -3.5296902e-05 0.0000000e+00 
-1.2041000e-07 -3.5306102e-05 0.0000000e+00 
3.6454441e-07 -3.5310831e-05 0.0000000e+00 
8.4964115e-07 -3.5315926e-05 0.0000000e+00 
-5.9020463e-07 -3.5947613e-05 0.0000000e+00 
-1.1313470e-07 -3.5949256e-05 0.0000000e+00 
3.6381633e-07 -3.5951188e-05 0.0000000e+00 
8.4091475e-07 -3.5948556e-05 0.0000000e+00 
-5.7459552e-07 -3.6569392e-05 0.0000000e+00 
-1.0573674e-07 -3.6578755e-05 0.0000000e+00 
3.6300828e-07 -3.6583525e-05 0.0000000e+00 
8.3188064e-07 -3.6588571e-05 0.0000000e+00 
-5.5871483e-07 -3.7198221e-05 0.0000000e+00 
-9.8248975e-08 -3.7199959e-05 0.0000000e+00 
3.6210935e-07 -3.7201902e-05 0.0000000e+00 
8.2257110e-07 -3.7199176e-05 0.0000000e+00 
-5.4261302e-07 -3.7797582e-05 0.0000000e+00 
-9.0674039e-08 -3.7807009e-05 0.0000000e+00 
3.6113584e-07 -3.7811791e-05 0.0000000e+00 
8.1300375e-07 -3.7816732e-05 0.0000000e+00 
-5.2604921e-07 -3.8403660e-05 0.0000000e+00 
-8.3202221e-08 -3.8405578e-05 0.0000000e+00 
3.5992077e-07 -3.8407049e-05 0.0000000e+00 
8.0347405e-07 -3.8404355e-05 0.0000000e+00 
-5.0875315e-07 -3.8979520e-05 0.0000000e+00 
-7.5914661e-08 -3.8988527e-05 0.0000000e+00 
3.5839581e-07 -3.8994540e-05 0.0000000e+00 
7.9432313e-07 -3.8998928e-05 0.0000000e+00 
-4.9266054e-07 -3.9552792e-05 0.0000000e+00 
-6.5749454e-08 -3.9561852e-05 0.0000000e+00 
3.5967091e-07 -3.9567888e-05 0.0000000e+00 
7.8366837e-07 -3.9572284e-05 0.0000000e+00 
-4.7521239e-07 -4.0123525e-05 0.0000000e+00 
-5.8409068e-08 -4.0125479e-05 0.0000000e+00 
3.5804042e-07 -4.0126952e-05 0.0000000e+00 
7.7418635e-07 -4.0124171e-05 0.0000000e+00 
-4.5818043e-07 -4.0663527e-05 0.0000000e+00 
-5.0830361e-08 -4.0673139e-05 0.0000000e+00 
3.5661174e-07 -4.0677964e-05 0.0000000e+00 
7.6417577e-07 -4.0682877e-05 0.0000000e+00 
-4.4148042e-07 -4.1210003e-05 0.0000000e+00 
-4.3092414e-08 -4.1211835e-05 0.0000000e+00 
3.5532291e-07 -4.1213776e-05 0.0000000e+00 
7.5376520e-07 -4.1210851e-05 0.0000000e+00 
-4.2468974e-07 -4.1725886e-05 0.0000000e+00 
-3.5377718e-08 -4.1735575e-05 0.0000000e+00 
3.5400597e-07 -4.1740414e-05 0.0000000e+00 
7.4344486e-07 -4.1745399e-05 0.0000000e+00 
-4.0802815e-07 -4.2248336e-05 0.0000000e+00 
-2.7692633e-08 -4.2250133e-05 0.0000000e+00 
3.5267624e-07 -4.2252063e-05 0.0000000e+00 
7.3303279e-07 -4.2249120e-05 0.0000000e+00 
-3.9134231e-07 -4.2740093e-05 0.0000000e+00 
-2.0061405e-08 -4.2749764e-05 0.0000000e+00 
3.5132147e-07 -4.2754591e-05 0.0000000e+00 
7.2274717e-07 -4.2759587e-05 0.0000000e+00 
-3.7486329e-07 -4.3238547e-05 0.0000000e+00 
-1.2471144e-08 -4.3240301e-05 0.0000000e+00 
3.4997516e-07 -4.3242217e-05 0.0000000e+00 
7.1238896e-07 -4.3239281e-05 0.0000000e+00 
-3.5839680e-07 -4.3706411e-05 0.0000000e+00 
-4.9576142e-09 -4.3716038e-05 0.0000000e+00 
3.4861167e-07 -4.3720849e-05 0.0000000e+00 
7.0221336e-07 -4.3725863e-05 0.0000000e+00 
-3.4219956e-07 -4.4181156e-05 0.0000000e+00 
2.4987243e-09 -4.4182852e-05 0.0000000e+00 
3.4726967e-07 -4.4184749e-05 0.0000000e+00 
6.9199019e-07 -4.4181835e-05 0.0000000e+00 
-3.2604721e-07 -4.4625509e-05 0.0000000e+00 
9.8576067e-09 -4.4635068e-05 0.0000000e+00 
3.4591723e-07 -4.4639863e-05 0.0000000e+00 
6.8199986e-07 -4.4644899e-05 0.0000000e+00 
-3.1022927e-07 -4.5076977e-05 0.0000000e+00 
1.7151675e-08 -4.5078608e-05 0.0000000e+00 
3.4460443e-07 -4.5080484e-05 0.0000000e+00 
6.7197418e-07 -4.5077615e-05 0.0000000e+00 
-2.9451050e-07 -4.5498432e-05 0.0000000e+00 
2.4324676e-08 -4.5507834e-05 0.0000000e+00 
3.4328149e-07 -4.5512585e-05 0.0000000e+00 
6.6219897e-07 -4.5517580e-05 0.0000000e+00 
-2.7889857e-07 -4.5927249e-05 0.0000000e+00 
3.1250707e-08 -4.5928911e-05 0.0000000e+00 
3.4183841e-07 -4.5930282e-05 0.0000000e+00 
6.5268231e-07 -4.5927575e-05 0.0000000e+00 
-2.6283988e-07 -4.6326171e-05 0.0000000e+00 
3.7790548e-08 -4.6334942e-05 0.0000000e+00 
3.4013860e-07 -4.6340857e-05 0.0000000e+00 
6.4402312e-07 -4.6345356e-05 0.0000000e+00 
-2.4847861e-07 -4.6723633e-05 0.0000000e+00 
4.7071148e-08 -4.6732321e-05 0.0000000e+00 
3.4133168e-07 -4.6738247e-05 0.0000000e+00 
6.3408925e-07 -4.6742738e-05 0.0000000e+00 
-2.3319289e-07 -4.7119790e-05 0.0000000e+00 
5.3357074e-08 -4.7121294e-05 0.0000000e+00 
3.3967947e-07 -4.7122609e-05 0.0000000e+00 
6.2555171e-07 -4.7119984e-05 0.0000000e+00 
-2.1855321e-07 -4.7486750e-05 0.0000000e+00 
5.9716565e-08 -4.7495821e-05 0.0000000e+00 
3.3826669e-07 -4.7500458e-05 0.0000000e+00 
6.1687311e-07 -4.7505507e-05 0.0000000e+00 
-2.0467700e-07 -4.7861911e-05 0.0000000e+00 
6.6132405e-08 -4.7863182e-05 0.0000000e+00 
3.3708346e-07 -4.7864944e-05 0.0000000e+00 
6.0793937e-07 -4.7862266e-05 0.0000000e+00 
-1.9090853e-07 -4.8208669e-05 0.0000000e+00 
7.2380367e-08 -4.8217661e-05 0.0000000e+00 
3.3590657e-07 -4.8222268e-05 0.0000000e+00 
5.9943408e-07 -4.8227420e-05 0.0000000e+00 
-1.7764534e-07 -4.8564067e-05 0.0000000e+00 
7.8508413e-08 -4.8565212e-05 0.0000000e+00 
3.3479200e-07 -4.8566938e-05 0.0000000e+00 
5.9095901e-07 -4.8564324e-05 0.0000000e+00 
-1.6452241e-07 -4.8891536e-05 0.0000000e+00 
8.4455535e-08 -4.8900370e-05 0.0000000e+00 
3.3367849e-07 -4.8904923e-05 0.0000000e+00 
5.8290189e-07 -4.8910108e-05 0.0000000e+00 
-1.5193154e-07 -4.9228052e-05 0.0000000e+00 
9.0285452e-08 -4.9229075e-05 0.0000000e+00 
3.3263612e-07 -4.9230766e-05 0.0000000e+00 
5.7486768e-07 -4.9228227e-05 0.0000000e+00 
-1.3948508e-07 -4.9537234e-05 0.0000000e+00 
9.5929387e-08 -4.9545904e-05 0.0000000e+00 
3.3159503e-07 -4.9550405e-05 0.0000000e+00 
5.6726187e-07 -4.9555622e-05 0.0000000e+00 
-1.2758329e-07 -4.9855871e-05 0.0000000e+00 
1.0145334e-07 -4.9856771e-05 0.0000000e+00 
3.3062612e-07 -4.9858425e-05 0.0000000e+00 
5.5967866e-07 -4.9855963e-05 0.0000000e+00 
-1.1582740e-07 -5.0147785e-05 0.0000000e+00 
1.0678783e-07 -5.0156285e-05 0.0000000e+00 
3.2965805e-07 -5.0160735e-05 0.0000000e+00 
5.5253059e-07 -5.0165982e-05 0.0000000e+00 
-1.0463341e-07 -5.0449554e-05 0.0000000e+00 
1.1200711e-07 -5.0450338e-05 0.0000000e+00 
3.2876872e-07 -5.0451954e-05 0.0000000e+00 
5.4539404e-07 -5.0449580e-05 0.0000000e+00 
-9.3609893e-08 -5.0725314e-05 0.0000000e+00 
1.1702993e-07 -5.0733577e-05 0.0000000e+00 
3.2787441e-07 -5.0737956e-05 0.0000000e+00 
5.3867044e-07 -5.0743166e-05 0.0000000e+00 
-8.2889323e-08 -5.1011298e-05 0.0000000e+00 
1.2177477e-07 -5.1012067e-05 0.0000000e+00 
3.2689604e-07 -5.1013185e-05 0.0000000e+00 
5.3221830e-07 -5.1010999e-05 0.0000000e+00 
-7.1788902e-08 -5.1271669e-05 0.0000000e+00 
1.2608068e-07 -5.1279257e-05 0.0000000e+00 
3.2566968e-07 -5.1284713e-05 0.0000000e+00 
5.2672678e-07 -5.1289449e-05 0.0000000e+00 
-6.2457413e-08 -5.1533904e-05 0.0000000e+00 
1.3297107e-07 -5.1541366e-05 0.0000000e+00 
3.2721975e-07 -5.1546830e-05 0.0000000e+00 
5.2003731e-07 -5.1551537e-05 0.0000000e+00 
-5.2347983e-08 -5.1798123e-05 0.0000000e+00 
1.3695193e-07 -5.1798700e-05 0.0000000e+00 
3.2605001e-07 -5.1799737e-05 0.0000000e+00 
5.1469507e-07 -5.1797660e-05 0.0000000e+00 
-4.2864252e-08 -5.2037715e-05 0.0000000e+00 
1.4096094e-07 -5.2045502e-05 0.0000000e+00 
3.2509659e-07 -5.2049702e-05 0.0000000e+00 
5.0929688e-07 -5.2054934e-05 0.0000000e+00 
-3.4207101e-08 -5.2288434e-05 0.0000000e+00 
1.4500935e-07 -5.2288772e-05 0.0000000e+00 
3.2437014e-07 -5.2290227e-05 0.0000000e+00 
5.0362999e-07 -5.2288107e-05 0.0000000e+00 
-2.5645578e-08 -5.2515401e-05 0.0000000e+00 
1.4886693e-07 -5.2523080e-05 0.0000000e+00 
3.2363663e-07 -5.2527236e-05 0.0000000e+00 
4.9842385e-07 -5.2532553e-05 0.0000000e+00 
-1.7634294e-08 -5.2753908e-05 0.0000000e+00 
1.5260188e-07 -5.2754117e-05 0.0000000e+00 
3.2296322e-07 -5.2755531e-05 0.0000000e+00 
4.9321148e-07 -5.2753473e-05 0.0000000e+00 
-9.7351009e-09 -5.2969183e-05 0.0000000e+00 
1.5614279e-07 -5.2976692e-05 0.0000000e+00 
3.2227452e-07 -5.2980782e-05 0.0000000e+00 
4.8842754e-07 -5.2986115e-05 0.0000000e+00 
-2.3873633e-09 -5.3196359e-05 0.0000000e+00 
1.5956977e-07 -5.3196449e-05 0.0000000e+00 
3.2164903e-07 -5.3197822e-05 0.0000000e+00 
4.8362001e-07 -5.3195832e-05 0.0000000e+00 
4.8567483e-09 -5.3400900e-05 0.0000000e+00 
1.6280607e-07 -5.3408239e-05 0.0000000e+00 
3.2100589e-07 -5.3412268e-05 0.0000000e+00 
4.7923156e-07 -5.3417614e-05 0.0000000e+00 
1.1558428e-08 -5.3617678e-05 0.0000000e+00 
1.6593107e-07 -5.3617655e-05 0.0000000e+00 
3.2042237e-07 -5.3618986e-05 0.0000000e+00 
4.7481053e-07 -5.3617061e-05 0.0000000e+00 
1.8165690e-08 -5.3812403e-05 0.0000000e+00 
1.6886907e-07 -5.3819575e-05 0.0000000e+00 
3.1981862e-07 -5.3823547e-05 0.0000000e+00 
4.7079834e-07 -5.3828902e-05 0.0000000e+00 
2.4232307e-08 -5.4019678e-05 0.0000000e+00 
1.7170477e-07 -5.4019553e-05 0.0000000e+00 
3.1927682e-07 -5.4020843e-05 0.0000000e+00 
4.6673580e-07 -5.4018988e-05 0.0000000e+00 
3.0190141e-08 -5.4205548e-05 0.0000000e+00 
1.7435294e-07 -5.4212497e-05 0.0000000e+00 
3.1870752e-07 -5.4216393e-05 0.0000000e+00 
4.6304701e-07 -5.4221693e-05 0.0000000e+00 
3.5866858e-08 -5.4404238e-05 0.0000000e+00 
1.7674909e-07 -5.4404109e-05 0.0000000e+00 
3.1804334e-07 -5.4404924e-05 0.0000000e+00 
4.5954665e-07 -5.4403231e-05 0.0000000e+00 
4.1962550e-08 -5.4581848e-05 0.0000000e+00 
1.7873292e-07 -5.4588165e-05 0.0000000e+00 
3.1712009e-07 -5.4593069e-05 0.0000000e+00 
4.5692598e-07 -5.4597898e-05 0.0000000e+00 
4.6413311e-08 -5.4764296e-05 0.0000000e+00 