# vtk DataFile Version 4.0
vtk output
ASCII
DATASET UNSTRUCTURED_GRID
POINTS 604 float
5.5000000e+00 5.9700000e+00 0.0000000e+00 
5.5000000e+00 5.9900000e+00 0.0000000e+00 
5.5266667e+00 5.9700000e+00 0.0000000e+00 
5.5266667e+00 5.9900000e+00 0.0000000e+00 
5.5000000e+00 6.0100000e+00 0.0000000e+00 
5.5266667e+00 6.0100000e+00 0.0000000e+00 
5.5533333e+00 5.9700000e+00 0.0000000e+00 
5.5533333e+00 5.9900000e+00 0.0000000e+00 
5.5000000e+00 6.0300000e+00 0.0000000e+00 
5.5266667e+00 6.0300000e+00 0.0000000e+00 
5.5533333e+00 6.0100000e+00 0.0000000e+00 
5.5800000e+00 5.9700000e+00 0.0000000e+00 
5.5533333e+00 6.0300000e+00 0.0000000e+00 
5.5800000e+00 5.9900000e+00 0.0000000e+00 
5.5800000e+00 6.0100000e+00 0.0000000e+00 
5.5800000e+00 6.0300000e+00 0.0000000e+00 
5.6066667e+00 5.9700000e+00 0.0000000e+00 
5.6066667e+00 5.9900000e+00 0.0000000e+00 
5.6066667e+00 6.0100000e+00 0.0000000e+00 
5.6066667e+00 6.0300000e+00 0.0000000e+00 
5.6333333e+00 5.9700000e+00 0.0000000e+00 
5.6333333e+00 5.9900000e+00 0.0000000e+00 
5.6333333e+00 6.0100000e+00 0.0000000e+00 
5.6333333e+00 6.0300000e+00 0.0000000e+00 
5.6600000e+00 5.9700000e+00 0.0000000e+00 
5.6600000e+00 5.9900000e+00 0.0000000e+00 
5.6600000e+00 6.0100000e+00 0.0000000e+00 
5.6600000e+00 6.0300000e+00 0.0000000e+00 
5.6866667e+00 5.9700000e+00 0.0000000e+00 
5.6866667e+00 5.9900000e+00 0.0000000e+00 
5.6866667e+00 6.0100000e+00 0.0000000e+00 
5.6866667e+00 6.0300000e+00 0.0000000e+00 
5.7133333e+00 5.9700000e+00 0.0000000e+00 
5.7133333e+00 5.9900000e+00 0.0000000e+00 
5.7133333e+00 6.0100000e+00 0.0000000e+00 
5.7133333e+00 6.0300000e+00 0.0000000e+00 
5.7400000e+00 5.9700000e+00 0.0000000e+00 
5.7400000e+00 5.9900000e+00 0.0000000e+00 
5.7400000e+00 6.0100000e+00 0.0000000e+00 
5.7400000e+00 6.0300000e+00 0.0000000e+00 
5.7666667e+00 5.9700000e+00 0.0000000e+00 
5.7666667e+00 5.9900000e+00 0.0000000e+00 
5.7666667e+00 6.0100000e+00 0.0000000e+00 
5.7666667e+00 6.0300000e+00 0.0000000e+00 
5.7933333e+00 5.9700000e+00 0.0000000e+00 
5.7933333e+00 5.9900000e+00 0.0000000e+00 
5.7933333e+00 6.0100000e+00 0.0000000e+00 
5.7933333e+00 6.0300000e+00 0.0000000e+00 
5.8200000e+00 5.9700000e+00 0.0000000e+00 
5.8200000e+00 5.9900000e+00 0.0000000e+00 
5.8200000e+00 6.0100000e+00 0.0000000e+00 
5.8200000e+00 6.0300000e+00 0.0000000e+00 
5.8466667e+00 5.9700000e+00 0.0000000e+00 
5.8466667e+00 5.9900000e+00 0.0000000e+00 
5.8466667e+00 6.0100000e+00 0.0000000e+00 
5.8466667e+00 6.0300000e+00 0.0000000e+00 
5.8733333e+00 5.9700000e+00 0.0000000e+00 
5.8733333e+00 5.9900000e+00 0.0000000e+00 
5.8733333e+00 6.0100000e+00 0.0000000e+00 
5.8733333e+00 6.0300000e+00 0.0000000e+00 
5.9000000e+00 5.9700000e+00 0.0000000e+00 
5.9000000e+00 5.9900000e+00 0.0000000e+00 
5.9000000e+00 6.0100000e+00 0.0000000e+00 
5.9000000e+00 6.0300000e+00 0.0000000e+00 
5.9266667e+00 5.9700000e+00 0.0000000e+00 
5.9266667e+00 5.9900000e+00 0.0000000e+00 
5.9266667e+00 6.0100000e+00 0.0000000e+00 
5.9266667e+00 6.0300000e+00 0.0000000e+00 
5.9533333e+00 5.9700000e+00 0.0000000e+00 
5.9533333e+00 5.9900000e+00 0.0000000e+00 
5.9533333e+00 6.0100000e+00 0.0000000e+00 
5.9533333e+00 6.0300000e+00 0.0000000e+00 
5.9800000e+00 5.9700000e+00 0.0000000e+00 
5.9800000e+00 5.9900000e+00 0.0000000e+00 
5.9800000e+00 6.0100000e+00 0.0000000e+00 
5.9800000e+00 6.0300000e+00 0.0000000e+00 
6.0066667e+00 5.9700000e+00 0.0000000e+00 
6.0066667e+00 5.9900000e+00 0.0000000e+00 
6.0066667e+00 6.0100000e+00 0.0000000e+00 
6.0066667e+00 6.0300000e+00 0.0000000e+00 
6.0333333e+00 5.9700000e+00 0.0000000e+00 
6.0333333e+00 5.9900000e+00 0.0000000e+00 
6.0333333e+00 6.0100000e+00 0.0000000e+00 
6.0333333e+00 6.0300000e+00 0.0000000e+00 
6.0600000e+00 5.9700000e+00 0.0000000e+00 
6.0600000e+00 5.9900000e+00 0.0000000e+00 
6.0600000e+00 6.0100000e+00 0.0000000e+00 
6.0600000e+00 6.0300000e+00 0.0000000e+00 
6.0866667e+00 5.9700000e+00 0.0000000e+00 
6.0866667e+00 5.9900000e+00 0.0000000e+00 
6.0866667e+00 6.0100000e+00 0.0000000e+00 
6.0866667e+00 6.0300000e+00 0.0000000e+00 
6.1133333e+00 5.9700000e+00 0.0000000e+00 
6.1133333e+00 5.9900000e+00 0.0000000e+00 
6.1133333e+00 6.0100000e+00 0.0000000e+00 
6.1133333e+00 6.0300000e+00 0.0000000e+00 
6.1400000e+00 5.9700000e+00 0.0000000e+00 
6.1400000e+00 5.9900000e+00 0.0000000e+00 
6.1400000e+00 6.0100000e+00 0.0000000e+00 
6.1400000e+00 6.0300000e+00 0.0000000e+00 
6.1666667e+00 5.9700000e+00 0.0000000e+00 
6.1666667e+00 5.9900000e+00 0.0000000e+00 
6.1666667e+00 6.0100000e+00 0.0000000e+00 
6.1666667e+00 6.0300000e+00 0.0000000e+00 
6.1933333e+00 5.9700000e+00 0.0000000e+00 
6.1933333e+00 5.9900000e+00 0.0000000e+00 
6.1933333e+00 6.0100000e+00 0.0000000e+00 
6.1933333e+00 6.0300000e+00 0.0000000e+00 
6.2200000e+00 5.9700000e+00 0.0000000e+00 
6.2200000e+00 5.9900000e+00 0.0000000e+00 
6.2200000e+00 6.0100000e+00 0.0000000e+00 
6.2200000e+00 6.0300000e+00 0.0000000e+00 
6.2466667e+00 5.9700000e+00 0.0000000e+00 
6.2466667e+00 5.9900000e+00 0.0000000e+00 
6.2466667e+00 6.0100000e+00 0.0000000e+00 
6.2466667e+00 6.0300000e+00 0.0000000e+00 
6.2733333e+00 5.9700000e+00 0.0000000e+00 
6.2733333e+00 5.9900000e+00 0.0000000e+00 
6.2733333e+00 6.0100000e+00 0.0000000e+00 
6.2733333e+00 6.0300000e+00 0.0000000e+00 
6.3000000e+00 5.9700000e+00 0.0000000e+00 
6.3000000e+00 5.9900000e+00 0.0000000e+00 
6.3000000e+00 6.0100000e+00 0.0000000e+00 
6.3000000e+00 6.0300000e+00 0.0000000e+00 
6.3266667e+00 5.9700000e+00 0.0000000e+00 
6.3266667e+00 5.9900000e+00 0.0000000e+00 
6.3266667e+00 6.0100000e+00 0.0000000e+00 
6.3266667e+00 6.0300000e+00 0.0000000e+00 
6.3533333e+00 5.9700000e+00 0.0000000e+00 
6.3533333e+00 5.9900000e+00 0.0000000e+00 
6.3533333e+00 6.0100000e+00 0.0000000e+00 
6.3533333e+00 6.0300000e+00 0.0000000e+00 
6.3800000e+00 5.9700000e+00 0.0000000e+00 
6.3800000e+00 5.9900000e+00 0.0000000e+00 
6.3800000e+00 6.0100000e+00 0.0000000e+00 
6.3800000e+00 6.0300000e+00 0.0000000e+00 
6.4066667e+00 5.9700000e+00 0.0000000e+00 
6.4066667e+00 5.9900000e+00 0.0000000e+00 
6.4066667e+00 6.0100000e+00 0.0000000e+00 
6.4066667e+00 6.0300000e+00 0.0000000e+00 
6.4333333e+00 5.9700000e+00 0.0000000e+00 
6.4333333e+00 5.9900000e+00 0.0000000e+00 
6.4333333e+00 6.0100000e+00 0.0000000e+00 
6.4333333e+00 6.0300000e+00 0.0000000e+00 
6.4600000e+00 5.9700000e+00 0.0000000e+00 
6.4600000e+00 5.9900000e+00 0.0000000e+00 
6.4600000e+00 6.0100000e+00 0.0000000e+00 
6.4600000e+00 6.0300000e+00 0.0000000e+00 
6.4866667e+00 5.9700000e+00 0.0000000e+00 
6.4866667e+00 5.9900000e+00 0.0000000e+00 
6.4866667e+00 6.0100000e+00 0.0000000e+00 
6.4866667e+00 6.0300000e+00 0.0000000e+00 
6.5133333e+00 5.9700000e+00 0.0000000e+00 
6.5133333e+00 5.9900000e+00 0.0000000e+00 
6.5133333e+00 6.0100000e+00 0.0000000e+00 
6.5133333e+00 6.0300000e+00 0.0000000e+00 
6.5400000e+00 5.9700000e+00 0.0000000e+00 
6.5400000e+00 5.9900000e+00 0.0000000e+00 
6.5400000e+00 6.0100000e+00 0.0000000e+00 
6.5400000e+00 6.0300000e+00 0.0000000e+00 
6.5666667e+00 5.9700000e+00 0.0000000e+00 
6.5666667e+00 5.9900000e+00 0.0000000e+00 
6.5666667e+00 6.0100000e+00 0.0000000e+00 
6.5666667e+00 6.0300000e+00 0.0000000e+00 
6.5933333e+00 5.9700000e+00 0.0000000e+00 
6.5933333e+00 5.9900000e+00 0.0000000e+00 
6.5933333e+00 6.0100000e+00 0.0000000e+00 
6.5933333e+00 6.0300000e+00 0.0000000e+00 
6.6200000e+00 5.9700000e+00 0.0000000e+00 
6.6200000e+00 5.9900000e+00 0.0000000e+00 
6.6200000e+00 6.0100000e+00 0.0000000e+00 
6.6200000e+00 6.0300000e+00 0.0000000e+00 
6.6466667e+00 5.9700000e+00 0.0000000e+00 
6.6466667e+00 5.9900000e+00 0.0000000e+00 
6.6466667e+00 6.0100000e+00 0.0000000e+00 
6.6466667e+00 6.0300000e+00 0.0000000e+00 
6.6733333e+00 5.9700000e+00 0.0000000e+00 
6.6733333e+00 5.9900000e+00 0.0000000e+00 
6.6733333e+00 6.0100000e+00 0.0000000e+00 
6.6733333e+00 6.0300000e+00 0.0000000e+00 
6.7000000e+00 5.9700000e+00 0.0000000e+00 
6.7000000e+00 5.9900000e+00 0.0000000e+00 
6.7000000e+00 6.0100000e+00 0.0000000e+00 
6.7000000e+00 6.0300000e+00 0.0000000e+00 
6.7266667e+00 5.9700000e+00 0.0000000e+00 
6.7266667e+00 5.9900000e+00 0.0000000e+00 
6.7266667e+00 6.0100000e+00 0.0000000e+00 
6.7266667e+00 6.0300000e+00 0.0000000e+00 
6.7533333e+00 5.9700000e+00 0.0000000e+00 
6.7533333e+00 5.9900000e+00 0.0000000e+00 
6.7533333e+00 6.0100000e+00 0.0000000e+00 
6.7533333e+00 6.0300000e+00 0.0000000e+00 
6.7800000e+00 5.9700000e+00 0.0000000e+00 
6.7800000e+00 5.9900000e+00 0.0000000e+00 
6.7800000e+00 6.0100000e+00 0.0000000e+00 
6.7800000e+00 6.0300000e+00 0.0000000e+00 
6.8066667e+00 5.9700000e+00 0.0000000e+00 
6.8066667e+00 5.9900000e+00 0.0000000e+00 
6.8066667e+00 6.0100000e+00 0.0000000e+00 
6.8066667e+00 6.0300000e+00 0.0000000e+00 
6.8333333e+00 5.9700000e+00 0.0000000e+00 
6.8333333e+00 5.9900000e+00 0.0000000e+00 
6.8333333e+00 6.0100000e+00 0.0000000e+00 
6.8333333e+00 6.0300000e+00 0.0000000e+00 
6.8600000e+00 5.9700000e+00 0.0000000e+00 
6.8600000e+00 5.9900000e+00 0.0000000e+00 
6.8600000e+00 6.0100000e+00 0.0000000e+00 
6.8600000e+00 6.0300000e+00 0.0000000e+00 
6.8866667e+00 5.9700000e+00 0.0000000e+00 
6.8866667e+00 5.9900000e+00 0.0000000e+00 
6.8866667e+00 6.0100000e+00 0.0000000e+00 
6.8866667e+00 6.0300000e+00 0.0000000e+00 
6.9133333e+00 5.9700000e+00 0.0000000e+00 
6.9133333e+00 5.9900000e+00 0.0000000e+00 
6.9133333e+00 6.0100000e+00 0.0000000e+00 
6.9133333e+00 6.0300000e+00 0.0000000e+00 
6.9400000e+00 5.9700000e+00 0.0000000e+00 
6.9400000e+00 5.9900000e+00 0.0000000e+00 
6.9400000e+00 6.0100000e+00 0.0000000e+00 
6.9400000e+00 6.0300000e+00 0.0000000e+00 
6.9666667e+00 5.9700000e+00 0.0000000e+00 
6.9666667e+00 5.9900000e+00 0.0000000e+00 
6.9666667e+00 6.0100000e+00 0.0000000e+00 
6.9666667e+00 6.0300000e+00 0.0000000e+00 
6.9933333e+00 5.9700000e+00 0.0000000e+00 
6.9933333e+00 5.9900000e+00 0.0000000e+00 
6.9933333e+00 6.0100000e+00 0.0000000e+00 
6.9933333e+00 6.0300000e+00 0.0000000e+00 
7.0200000e+00 5.9700000e+00 0.0000000e+00 
7.0200000e+00 5.9900000e+00 0.0000000e+00 
[...]
POINT_DATA 604
FIELD FieldData 2
DISPLACEMENT 3 604  float
0.0000000e+00 0.0000000e+00 0.0000000e+00 
0.0000000e+00 0.0000000e+00 0.0000000e+00 
1.5749678e-04 9.5901407e-05 0.0000000e+00 
4.9827869e-05 6.2314611e-05 0.0000000e+00 
0.0000000e+00 0.0000000e+00 0.0000000e+00 
-5.0568864e-05 6.1884769e-05 0.0000000e+00 
3.1673789e-04 3.0788761e-04 0.0000000e+00 
1.0463653e-04 2.7940462e-04 0.0000000e+00 
0.0000000e+00 0.0000000e+00 0.0000000e+00 
-1.5848963e-04 9.4657782e-05 0.0000000e+00 
-1.0762244e-04 2.7813620e-04 0.0000000e+00 
4.7220410e-04 6.6661031e-04 0.0000000e+00 
-3.2030356e-04 3.0433494e-04 0.0000000e+00 
1.5439074e-04 6.3642270e-04 0.0000000e+00 
-1.6258975e-04 6.3371904e-04 0.0000000e+00 
-4.8130575e-04 6.5853155e-04 0.0000000e+00 
6.2273941e-04 1.1647408e-03 0.0000000e+00 
2.0143855e-04 1.1333033e-03 0.0000000e+00 
-2.1930044e-04 1.1287539e-03 0.0000000e+00 
-6.4175960e-04 1.1512970e-03 0.0000000e+00 
7.6776369e-04 1.8010215e-03 0.0000000e+00 
2.4468242e-04 1.7674901e-03 0.0000000e+00 
-2.7796983e-04 1.7604722e-03 0.0000000e+00 
-8.0247831e-04 1.7799831e-03 0.0000000e+00 
9.0666169e-04 2.5723649e-03 0.0000000e+00 
2.8354099e-04 2.5365483e-03 0.0000000e+00 
-3.3929501e-04 2.5267600e-03 0.0000000e+00 
-9.6412211e-04 2.5431009e-03 0.0000000e+00 
1.0388669e-03 3.4769283e-03 0.0000000e+00 
3.1735278e-04 3.4382496e-03 0.0000000e+00 
-4.0394789e-04 3.4251551e-03 0.0000000e+00 
-1.1272656e-03 3.4377369e-03 0.0000000e+00 
1.1637817e-03 4.5123918e-03 0.0000000e+00 
3.4566501e-04 4.4702962e-03 0.0000000e+00 
-4.7237950e-04 4.4533871e-03 0.0000000e+00 
-1.2925674e-03 4.4616303e-03 0.0000000e+00 
1.2809600e-03 5.6759349e-03 0.0000000e+00 
3.6788967e-04 5.6303089e-03 0.0000000e+00 
-5.4521312e-04 5.6093575e-03 0.0000000e+00 
-1.4605600e-03 5.6132149e-03 0.0000000e+00 
1.3898522e-03 6.9659726e-03 0.0000000e+00 
3.8352527e-04 6.9161497e-03 0.0000000e+00 
-6.2294788e-04 6.8906565e-03 0.0000000e+00 
-1.6317458e-03 6.8894037e-03 0.0000000e+00 
1.4900542e-03 8.3795312e-03 0.0000000e+00 
3.9210510e-04 8.3254648e-03 0.0000000e+00 
-7.0607155e-04 8.2952071e-03 0.0000000e+00 
-1.8066557e-03 8.2888687e-03 0.0000000e+00 
1.5810721e-03 9.9150692e-03 0.0000000e+00 
3.9318936e-04 9.8561259e-03 0.0000000e+00 
-7.9502587e-04 9.8206554e-03 0.0000000e+00 
-1.9857174e-03 9.8085395e-03 0.0000000e+00 
1.6625777e-03 1.1569627e-02 0.0000000e+00 
3.8636731e-04 1.1505812e-02 0.0000000e+00 
-8.9024427e-04 1.1464953e-02 0.0000000e+00 
-2.1694053e-03 1.1447136e-02 0.0000000e+00 
1.7341244e-03 1.3341715e-02 0.0000000e+00 
3.7125551e-04 1.3272431e-02 0.0000000e+00 
-9.9211005e-04 1.3225774e-02 0.0000000e+00 
-2.3580816e-03 1.3201599e-02 0.0000000e+00 
1.7954487e-03 1.5228390e-02 0.0000000e+00 
3.4749998e-04 1.5153690e-02 0.0000000e+00 
-1.1010023e-03 1.5101103e-02 0.0000000e+00 
-2.5521746e-03 1.5070694e-02 0.0000000e+00 
1.8461498e-03 1.7228214e-02 0.0000000e+00 
3.1477029e-04 1.7147532e-02 0.0000000e+00 
-1.2172490e-03 1.7088644e-02 0.0000000e+00 
-2.7519833e-03 1.7051379e-02 0.0000000e+00 
1.8860246e-03 1.9338261e-02 0.0000000e+00 
2.7276612e-04 1.9251696e-02 0.0000000e+00 
-1.3411780e-03 1.9186415e-02 0.0000000e+00 
-2.9578930e-03 1.9142461e-02 0.0000000e+00 
1.9147161e-03 2.1557139e-02 0.0000000e+00 
2.2120652e-04 2.1464158e-02 0.0000000e+00 
-1.4730656e-03 2.1392148e-02 0.0000000e+00 
-3.1701420e-03 2.1340917e-02 0.0000000e+00 
1.9320779e-03 2.3881947e-02 0.0000000e+00 
1.5984213e-04 2.3782688e-02 0.0000000e+00 
-1.6131910e-03 2.3703896e-02 0.0000000e+00 
-3.3890755e-03 2.3645592e-02 0.0000000e+00 
1.9377872e-03 2.6311335e-02 0.0000000e+00 
8.8442072e-05 2.6205302e-02 0.0000000e+00 
-1.7617774e-03 2.6119415e-02 0.0000000e+00 
-3.6148819e-03 2.6053488e-02 0.0000000e+00 
1.9317437e-03 2.8842417e-02 0.0000000e+00 
6.8097317e-06 2.8729770e-02 0.0000000e+00 
-1.9190604e-03 2.8636822e-02 0.0000000e+00 
-3.8478755e-03 2.8563492e-02 0.0000000e+00 
1.9137524e-03 3.1473707e-02 0.0000000e+00 
-8.5313806e-05 3.1354145e-02 0.0000000e+00 
-2.0853003e-03 3.1253889e-02 0.0000000e+00 
-4.0881747e-03 3.1172858e-02 0.0000000e+00 
1.8836118e-03 3.4203147e-02 0.0000000e+00 
-1.8796675e-04 3.4076398e-02 0.0000000e+00 
-2.2605351e-03 3.3968611e-02 0.0000000e+00 
-4.3360421e-03 3.3879572e-02 0.0000000e+00 
1.8413035e-03 3.7028116e-02 0.0000000e+00 
-3.0135038e-04 3.6894389e-02 0.0000000e+00 
-2.4450179e-03 3.6779148e-02 0.0000000e+00 
-4.5916631e-03 3.6682371e-02 0.0000000e+00 
1.7865961e-03 3.9947385e-02 0.0000000e+00 
-4.2560094e-04 3.9806255e-02 0.0000000e+00 
-2.6388607e-03 3.9683324e-02 0.0000000e+00 
-4.8550964e-03 3.9578333e-02 0.0000000e+00 
1.7195046e-03 4.2958163e-02 0.0000000e+00 
-5.6081131e-04 4.2809885e-02 0.0000000e+00 
-2.8421940e-03 4.2679322e-02 0.0000000e+00 
-5.1265786e-03 4.2566437e-02 0.0000000e+00 
1.6398357e-03 4.6059249e-02 0.0000000e+00 
-7.0707668e-04 4.5903421e-02 0.0000000e+00 
-3.0550995e-03 4.5765028e-02 0.0000000e+00 
-5.4061146e-03 4.5643795e-02 0.0000000e+00 
1.5476539e-03 4.9247883e-02 0.0000000e+00 
-8.6445689e-04 4.9084788e-02 0.0000000e+00 
-3.2776744e-03 4.8938649e-02 0.0000000e+00 
-5.6939052e-03 4.8809416e-02 0.0000000e+00 
1.4427947e-03 5.2522894e-02 0.0000000e+00 
-1.0330127e-03 5.2352158e-02 0.0000000e+00 
-3.5099647e-03 5.2198104e-02 0.0000000e+00 
-5.9899123e-03 5.2060444e-02 0.0000000e+00 
1.3253625e-03 5.5881559e-02 0.0000000e+00 
-1.2127689e-03 5.5703488e-02 0.0000000e+00 
-3.7520335e-03 5.5541628e-02 0.0000000e+00 
-6.2943096e-03 5.5395911e-02 0.0000000e+00 
1.1952200e-03 5.9322735e-02 0.0000000e+00 
-1.4037538e-03 5.9136982e-02 0.0000000e+00 
-4.0038932e-03 5.8967170e-02 0.0000000e+00 
-6.6070190e-03 5.8812999e-02 0.0000000e+00 
1.0525088e-03 6.2843735e-02 0.0000000e+00 
-1.6059597e-03 6.2650628e-02 0.0000000e+00 
-4.2655752e-03 6.2472996e-02 0.0000000e+00 
-6.9281883e-03 6.2310760e-02 0.0000000e+00 
8.9711730e-04 6.6443443e-02 0.0000000e+00 
-1.8193847e-03 6.6242659e-02 0.0000000e+00 
-4.5370607e-03 6.6057086e-02 0.0000000e+00 
-7.2577020e-03 6.5886413e-02 0.0000000e+00 
7.2922199e-04 7.0119210e-02 0.0000000e+00 
-2.0439909e-03 6.9911095e-02 0.0000000e+00 
-4.8183515e-03 6.9717733e-02 0.0000000e+00 
-7.5956832e-03 6.9539029e-02 0.0000000e+00 
5.4872812e-04 7.3869940e-02 0.0000000e+00 
-2.2797447e-03 7.3654204e-02 0.0000000e+00 
-5.1093951e-03 7.3452944e-02 0.0000000e+00 
-7.9419891e-03 7.3265867e-02 0.0000000e+00 
3.5583773e-04 7.7693019e-02 0.0000000e+00 
-2.5265729e-03 7.7470007e-02 0.0000000e+00 
-5.4101703e-03 7.7261068e-02 0.0000000e+00 
-8.2967260e-03 7.7066020e-02 0.0000000e+00 
1.5058002e-04 8.1587207e-02 0.0000000e+00 
-2.7844857e-03 8.1356802e-02 0.0000000e+00 
-5.7206749e-03 8.1140130e-02 0.0000000e+00 
-8.6597229e-03 8.0937006e-02 0.0000000e+00 
-6.7003039e-05 8.5550690e-02 0.0000000e+00 
-3.0532835e-03 8.5312816e-02 0.0000000e+00 
-6.0407103e-03 8.5088371e-02 0.0000000e+00 
-9.0309954e-03 8.4877051e-02 0.0000000e+00 
-2.9667616e-04 8.9581136e-02 0.0000000e+00 
-3.3329271e-03 8.9336155e-02 0.0000000e+00 
-6.3702954e-03 8.9104178e-02 0.0000000e+00 
-9.4105255e-03 8.8885083e-02 0.0000000e+00 
-5.3848398e-04 9.3677515e-02 0.0000000e+00 
-3.6233321e-03 9.3425192e-02 0.0000000e+00 
-6.7093104e-03 9.3185623e-02 0.0000000e+00 
-9.7980975e-03 9.2958471e-02 0.0000000e+00 
-7.9215577e-04 9.7837337e-02 0.0000000e+00 
-3.9243706e-03 9.7578062e-02 0.0000000e+00 
-7.0576695e-03 9.7331111e-02 0.0000000e+00 
-1.0193771e-02 9.7096353e-02 0.0000000e+00 
-1.0577141e-03 1.0205959e-01 0.0000000e+00 
-4.2359302e-03 1.0179314e-01 0.0000000e+00 
-7.4152411e-03 1.0153877e-01 0.0000000e+00 
-1.0597298e-02 1.0129614e-01 0.0000000e+00 
-1.3348561e-03 1.0634181e-01 0.0000000e+00 
-4.5578670e-03 1.0606860e-01 0.0000000e+00 
-7.7819219e-03 1.0580704e-01 0.0000000e+00 
-1.1008714e-02 1.0555699e-01 0.0000000e+00 
-1.6235897e-03 1.1068301e-01 0.0000000e+00 
-4.8900490e-03 1.1040283e-01 0.0000000e+00 
-8.1575604e-03 1.1013406e-01 0.0000000e+00 
-1.1427748e-02 1.0987636e-01 0.0000000e+00 
-1.9235892e-03 1.1508077e-01 0.0000000e+00 
-5.2323135e-03 1.1479404e-01 0.0000000e+00 
-8.5420342e-03 1.1451830e-01 0.0000000e+00 
-1.1854420e-02 1.1425341e-01 0.0000000e+00 
-2.2348489e-03 1.1953412e-01 0.0000000e+00 
-5.5845101e-03 1.1924065e-01 0.0000000e+00 
-8.9351736e-03 1.1895794e-01 0.0000000e+00 
-1.2288437e-02 1.1868563e-01 0.0000000e+00 
-2.5570216e-03 1.2404069e-01 0.0000000e+00 
-5.9464592e-03 1.2374090e-01 0.0000000e+00 
-9.3368392e-03 1.2345146e-01 0.0000000e+00 
-1.2729805e-02 1.2317222e-01 0.0000000e+00 
-2.8900891e-03 1.2859951e-01 0.0000000e+00 
-6.3179940e-03 1.2829324e-01 0.0000000e+00 
-9.7468449e-03 1.2799708e-01 0.0000000e+00 
-1.3178212e-02 1.2771069e-01 0.0000000e+00 
-3.2336850e-03 1.3320825e-01 0.0000000e+00 
-6.6989196e-03 1.3289592e-01 0.0000000e+00 
-1.0165036e-02 1.3259331e-01 0.0000000e+00 
-1.3633650e-02 1.3230025e-01 0.0000000e+00 
-3.5877861e-03 1.3786597e-01 0.0000000e+00 
-7.0890513e-03 1.3754744e-01 0.0000000e+00 
-1.0591206e-02 1.3723838e-01 0.0000000e+00 
-1.4095798e-02 1.3693846e-01 0.0000000e+00 
-3.9520145e-03 1.4257036e-01 0.0000000e+00 
-7.4881720e-03 1.4224605e-01 0.0000000e+00 
-1.1025193e-02 1.4193086e-01 0.0000000e+00 
-1.4564640e-02 1.4162454e-01 0.0000000e+00 
-4.3262306e-03 1.4732036e-01 0.0000000e+00 
-7.8961493e-03 1.4699027e-01 0.0000000e+00 
-1.1466849e-02 1.4666900e-01 0.0000000e+00 
-1.5039855e-02 1.4635631e-01 0.0000000e+00 
-4.7102561e-03 1.5211439e-01 0.0000000e+00 
-8.3126648e-03 1.5177856e-01 0.0000000e+00 
-1.1915855e-02 1.5145126e-01 0.0000000e+00 
-1.5521323e-02 1.5113218e-01 0.0000000e+00 
-5.1037174e-03 1.5695041e-01 0.0000000e+00 
-8.7375498e-03 1.5660924e-01 0.0000000e+00 
-1.2372103e-02 1.5627625e-01 0.0000000e+00 
-1.6008919e-02 1.5595127e-01 0.0000000e+00 
-5.5065692e-03 1.6182752e-01 0.0000000e+00 
-9.1706012e-03 1.6148092e-01 0.0000000e+00 
-1.2835352e-02 1.6114226e-01 0.0000000e+00 
-1.6502286e-02 1.6081121e-01 0.0000000e+00 
-5.9184014e-03 1.6674356e-01 0.0000000e+00 
-9.6115815e-03 1.6639195e-01 0.0000000e+00 
-1.3305407e-02 1.6604792e-01 0.0000000e+00 
-1.7001393e-02 1.6571129e-01 0.0000000e+00 
-6.3391567e-03 1.7169765e-01 0.0000000e+00 
-1.0060271e-02 1.7134093e-01 0.0000000e+00 
-1.3782029e-02 1.7099157e-01 0.0000000e+00 
-1.7505866e-02 1.7064921e-01 0.0000000e+00 
-6.7684080e-03 1.7668765e-01 0.0000000e+00 
-1.0516427e-02 1.7632626e-01 0.0000000e+00 
-1.4265015e-02 1.7597186e-01 0.0000000e+00 
-1.8015660e-02 1.7562428e-01 0.0000000e+00 
-7.2060915e-03 1.8171271e-01 0.0000000e+00 
-1.0979823e-02 1.8134655e-01 0.0000000e+00 
-1.4754121e-02 1.8098717e-01 0.0000000e+00 
-1.8530392e-02 1.8063421e-01 0.0000000e+00 
-7.6517716e-03 1.8677073e-01 0.0000000e+00 
-1.1450210e-02 1.8640024e-01 0.0000000e+00 
-1.5249138e-02 1.8603616e-01 0.0000000e+00 
-1.9050015e-02 1.8567834e-01 0.0000000e+00 
-8.1053787e-03 1.9186087e-01 0.0000000e+00 
-1.1927352e-02 1.9148596e-01 0.0000000e+00 
-1.5749813e-02 1.9111727e-01 0.0000000e+00 
-1.9574137e-02 1.9075443e-01 0.0000000e+00 
-8.5664701e-03 1.9698108e-01 0.0000000e+00 
-1.2410996e-02 1.9660220e-01 0.0000000e+00 
-1.6255933e-02 1.9622917e-01 0.0000000e+00 
-2.0102709e-02 1.9586183e-01 0.0000000e+00 
-9.0349708e-03 2.0213056e-01 0.0000000e+00 
-1.2900903e-02 2.0174761e-01 0.0000000e+00 
-1.6767242e-02 2.0137033e-01 0.0000000e+00 
-2.0635332e-02 2.0099834e-01 0.0000000e+00 
-9.5104334e-03 2.0730727e-01 0.0000000e+00 
-1.3396813e-02 2.0692071e-01 0.0000000e+00 
-1.7283522e-02 2.0653946e-01 0.0000000e+00 
-2.1171958e-02 2.0616334e-01 0.0000000e+00 
-9.9927840e-03 2.1251045e-01 0.0000000e+00 
-1.3898482e-02 2.1212020e-01 0.0000000e+00 
-1.7804511e-02 2.1173504e-01 0.0000000e+00 
-2.1712187e-02 2.1135465e-01 0.0000000e+00 
-1.0481578e-02 2.1773811e-01 0.0000000e+00 
-1.4405640e-02 2.1734459e-01 0.0000000e+00 
-1.8329996e-02 2.1695586e-01 0.0000000e+00 
-2.2255978e-02 2.1657171e-01 0.0000000e+00 
-1.0976633e-02 2.2298937e-01 0.0000000e+00 
-1.4918098e-02 2.2259262e-01 0.0000000e+00 
-1.8859780e-02 2.2220042e-01 0.0000000e+00 
-2.2802958e-02 2.2181255e-01 0.0000000e+00 
-1.1477714e-02 2.2826290e-01 0.0000000e+00 
-1.5435507e-02 2.2786300e-01 0.0000000e+00 
-1.9393512e-02 2.2746743e-01 0.0000000e+00 
-2.3352972e-02 2.2707586e-01 0.0000000e+00 
-1.1984410e-02 2.3355699e-01 0.0000000e+00 
-1.5957658e-02 2.3315435e-01 0.0000000e+00 
-1.9931054e-02 2.3275573e-01 0.0000000e+00 
-2.3905886e-02 2.3236095e-01 0.0000000e+00 
-1.2496640e-02 2.3887093e-01 0.0000000e+00 
-1.6484316e-02 2.3846550e-01 0.0000000e+00 
-2.0472137e-02 2.3806389e-01 0.0000000e+00 
-2.4461302e-02 2.3766578e-01 0.0000000e+00 
-1.3013968e-02 2.4420292e-01 0.0000000e+00 
-1.7015221e-02 2.4379510e-01 0.0000000e+00 
-2.1016547e-02 2.4339079e-01 0.0000000e+00 
-2.5019195e-02 2.4298985e-01 0.0000000e+00 
-1.3536308e-02 2.4955226e-01 0.0000000e+00 
-1.7550134e-02 2.4914199e-01 0.0000000e+00 
-2.1564033e-02 2.4873506e-01 0.0000000e+00 
-2.5579160e-02 2.4833115e-01 0.0000000e+00 
-1.4063221e-02 2.5491721e-01 0.0000000e+00 
-1.8088802e-02 2.5450489e-01 0.0000000e+00 
-2.2114386e-02 2.5409562e-01 0.0000000e+00 
-2.6141176e-02 2.5368924e-01 0.0000000e+00 
-1.4594621e-02 2.6029710e-01 0.0000000e+00 
-1.8630988e-02 2.5988268e-01 0.0000000e+00 
-2.2667358e-02 2.5947114e-01 0.0000000e+00 
-2.6704841e-02 2.5906215e-01 0.0000000e+00 
-1.5130076e-02 2.6569025e-01 0.0000000e+00 
-1.9176444e-02 2.6527412e-01 0.0000000e+00 
-2.3222747e-02 2.6486058e-01 0.0000000e+00 
-2.7270144e-02 2.6444948e-01 0.0000000e+00 
-1.5669501e-02 2.7109602e-01 0.0000000e+00 
-1.9724937e-02 2.7067814e-01 0.0000000e+00 
-2.3780313e-02 2.7026267e-01 0.0000000e+00 
-2.7836685e-02 2.6984931e-01 0.0000000e+00 
-1.6212472e-02 2.7651281e-01 0.0000000e+00 
-2.0276228e-02 2.7609354e-01 0.0000000e+00 
-2.4339858e-02 2.7567641e-01 0.0000000e+00 
-2.8404468e-02 2.7526129e-01 0.0000000e+00 
-1.6758904e-02 2.8194001e-01 0.0000000e+00 
-2.0830088e-02 2.8151930e-01 0.0000000e+00 
-2.4901151e-02 2.8110058e-01 0.0000000e+00 
-2.8973098e-02 2.8068355e-01 0.0000000e+00 
-1.7308384e-02 2.8737609e-01 0.0000000e+00 
-2.1386287e-02 2.8695430e-01 0.0000000e+00 
-2.5464003e-02 2.8653424e-01 0.0000000e+00 
-2.9542590e-02 2.8611578e-01 0.0000000e+00 
-1.7860836e-02 2.9282046e-01 0.0000000e+00 
-2.1944599e-02 2.9239755e-01 0.0000000e+00 
-2.6028190e-02 2.9197621e-01 0.0000000e+00 
-3.0112562e-02 2.9155618e-01 0.0000000e+00 
-1.8415860e-02 2.9827166e-01 0.0000000e+00 
-2.2504800e-02 2.9784797e-01 0.0000000e+00 
-2.6593536e-02 2.9742564e-01 0.0000000e+00 
-3.0683044e-02 2.9700448e-01 0.0000000e+00 
-1.8973297e-02 3.0372908e-01 0.0000000e+00 
-2.3066716e-02 3.0330464e-01 0.0000000e+00 
-2.7159890e-02 3.0288138e-01 0.0000000e+00 
-3.1253706e-02 3.0245913e-01 0.0000000e+00 
-1.9532925e-02 3.0919176e-01 0.0000000e+00 
-2.3630063e-02 3.0876663e-01 0.0000000e+00 
-2.7726963e-02 3.0834251e-01 0.0000000e+00 
-3.1824461e-02 3.0791917e-01 0.0000000e+00 
-2.0094397e-02 3.1465854e-01 0.0000000e+00 
-2.4194678e-02 3.1423302e-01 0.0000000e+00 
-2.8294677e-02 3.1380831e-01 0.0000000e+00 
-3.2395270e-02 3.1338430e-01 0.0000000e+00 
-2.0657658e-02 3.2012896e-01 0.0000000e+00 
-2.4760378e-02 3.1970302e-01 0.0000000e+00 
-2.8862832e-02 3.1927775e-01 0.0000000e+00 
-3.2965784e-02 3.1885291e-01 0.0000000e+00 
-2.1222348e-02 3.2560183e-01 0.0000000e+00 
-2.5326975e-02 3.2517574e-01 0.0000000e+00 
-2.9431283e-02 3.2475013e-01 0.0000000e+00 
-3.3536086e-02 3.2432490e-01 0.0000000e+00 
-2.1788417e-02 3.3107673e-01 0.0000000e+00 
-2.5894287e-02 3.3065045e-01 0.0000000e+00 
-2.9999858e-02 3.3022452e-01 0.0000000e+00 
-3.4105830e-02 3.2979873e-01 0.0000000e+00 
-2.2355515e-02 3.3655254e-01 0.0000000e+00 
-2.6462144e-02 3.3612633e-01 0.0000000e+00 
-3.0568427e-02 3.3570030e-01 0.0000000e+00 
-3.4675111e-02 3.3527437e-01 0.0000000e+00 
-2.2923601e-02 3.4202889e-01 0.0000000e+00 
-2.7030378e-02 3.4160271e-01 0.0000000e+00 
-3.1136833e-02 3.4117659e-01 0.0000000e+00 
-3.5243595e-02 3.4075035e-01 0.0000000e+00 
-2.3492340e-02 3.4750474e-01 0.0000000e+00 
-2.7598833e-02 3.4707884e-01 0.0000000e+00 
-3.1704959e-02 3.4665284e-01 0.0000000e+00 
-3.5811397e-02 3.4622669e-01 0.0000000e+00 
-2.4061703e-02 3.5297980e-01 0.0000000e+00 
-2.8167354e-02 3.5255412e-01 0.0000000e+00 
-3.2272666e-02 3.5212825e-01 0.0000000e+00 
-3.6378196e-02 3.5170199e-01 0.0000000e+00 
-2.4631371e-02 3.5845311e-01 0.0000000e+00 
-2.8735801e-02 3.5802788e-01 0.0000000e+00 
-3.2839850e-02 3.5760232e-01 0.0000000e+00 
-3.6944126e-02 3.5717637e-01 0.0000000e+00 
-2.5201326e-02 3.6392441e-01 0.0000000e+00 
-2.9304032e-02 3.6349958e-01 0.0000000e+00 
-3.3406388e-02 3.6307433e-01 0.0000000e+00 
-3.7508878e-02 3.6264848e-01 0.0000000e+00 
-2.5771267e-02 3.6939286e-01 0.0000000e+00 
-2.9871923e-02 3.6896864e-01 0.0000000e+00 
-3.3972192e-02 3.6854387e-01 0.0000000e+00 
-3.8072608e-02 3.6811851e-01 0.0000000e+00 
-2.6341192e-02 3.7485825e-01 0.0000000e+00 
-3.0439347e-02 3.7443458e-01 0.0000000e+00 
-3.4537154e-02 3.7401028e-01 0.0000000e+00 
-3.8635022e-02 3.7358520e-01 0.0000000e+00 
-2.6910819e-02 3.8031981e-01 0.0000000e+00 
-3.1006191e-02 3.7989688e-01 0.0000000e+00 
-3.5101203e-02 3.7947323e-01 0.0000000e+00 
-3.9196297e-02 3.7904878e-01 0.0000000e+00 
-2.7480085e-02 3.8577735e-01 0.0000000e+00 
-3.1572376e-02 3.8535514e-01 0.0000000e+00 
-3.5664305e-02 3.8493213e-01 0.0000000e+00 
-3.9756202e-02 3.8450827e-01 0.0000000e+00 
-2.8048864e-02 3.9123049e-01 0.0000000e+00 
-3.2137745e-02 3.9080899e-01 0.0000000e+00 
-3.6226295e-02 3.9038662e-01 0.0000000e+00 
-4.0314781e-02 3.8996327e-01 0.0000000e+00 
-2.8616931e-02 3.9667871e-01 0.0000000e+00 
-3.2702248e-02 3.9625809e-01 0.0000000e+00 
-3.6787212e-02 3.9583651e-01 0.0000000e+00 
-4.0872138e-02 3.9541400e-01 0.0000000e+00 
-2.9184331e-02 4.0212205e-01 0.0000000e+00 
-3.3265811e-02 4.0170220e-01 0.0000000e+00 
-3.7346983e-02 4.0128138e-01 0.0000000e+00 
-4.1428033e-02 4.0085947e-01 0.0000000e+00 
-2.9750836e-02 4.0755995e-01 0.0000000e+00 
-3.3828376e-02 4.0714104e-01 0.0000000e+00 
-3.7905579e-02 4.0672109e-01 0.0000000e+00 
-4.1982690e-02 4.0630011e-01 0.0000000e+00 
-3.0316501e-02 4.1299251e-01 0.0000000e+00 
-3.4389875e-02 4.1257444e-01 0.0000000e+00 
-3.8462960e-02 4.1215530e-01 0.0000000e+00 
-4.2535872e-02 4.1173500e-01 0.0000000e+00 
-3.0881110e-02 4.1841926e-01 0.0000000e+00 
-3.4950268e-02 4.1800216e-01 0.0000000e+00 
-3.9019111e-02 4.1758394e-01 0.0000000e+00 
-4.3087814e-02 4.1716464e-01 0.0000000e+00 
-3.1444735e-02 4.2384035e-01 0.0000000e+00 
-3.5509504e-02 4.2342412e-01 0.0000000e+00 
-3.9574008e-02 4.2300676e-01 0.0000000e+00 
-4.3638295e-02 4.2258820e-01 0.0000000e+00 
-3.2007175e-02 4.2925539e-01 0.0000000e+00 
-3.6067557e-02 4.2884015e-01 0.0000000e+00 
-4.0127649e-02 4.2842375e-01 0.0000000e+00 
-4.4187562e-02 4.2800623e-01 0.0000000e+00 
-3.2568519e-02 4.3466460e-01 0.0000000e+00 
-3.6624390e-02 4.3425023e-01 0.0000000e+00 
-4.0680025e-02 4.3383471e-01 0.0000000e+00 
-4.4735405e-02 4.3341798e-01 0.0000000e+00 
-3.3128580e-02 4.4006765e-01 0.0000000e+00 
-3.7179993e-02 4.3965428e-01 0.0000000e+00 
-4.1231147e-02 4.3923972e-01 0.0000000e+00 
-4.5282087e-02 4.3882405e-01 0.0000000e+00 
-3.3687464e-02 4.4546482e-01 0.0000000e+00 
-3.7734344e-02 4.4505231e-01 0.0000000e+00 
-4.1781020e-02 4.4463865e-01 0.0000000e+00 
-4.5827410e-02 4.4422377e-01 0.0000000e+00 
-3.4244998e-02 4.5085586e-01 0.0000000e+00 
-3.8287445e-02 4.5044432e-01 0.0000000e+00 
-4.2329664e-02 4.5003161e-01 0.0000000e+00 
-4.6371642e-02 4.4961780e-01 0.0000000e+00 
-3.4801308e-02 4.5624110e-01 0.0000000e+00 
-3.8839287e-02 4.5583040e-01 0.0000000e+00 
-4.2877098e-02 4.5541856e-01 0.0000000e+00 
-4.6914606e-02 4.5500555e-01 0.0000000e+00 
-3.5356239e-02 4.6162034e-01 0.0000000e+00 
-3.9389879e-02 4.6121058e-01 0.0000000e+00 
-4.3423354e-02 4.6079968e-01 0.0000000e+00 
-4.7456573e-02 4.6038770e-01 0.0000000e+00 
-3.5909861e-02 4.6699392e-01 0.0000000e+00 
-3.9939263e-02 4.6658500e-01 0.0000000e+00 
-4.3968505e-02 4.6617498e-01 0.0000000e+00 
-4.7997423e-02 4.6576389e-01 0.0000000e+00 
-3.6462184e-02 4.7236197e-01 0.0000000e+00 
-4.0487402e-02 4.7195382e-01 0.0000000e+00 