# vtk DataFile Version 4.0
vtk output
ASCII
DATASET UNSTRUCTURED_GRID
POINTS 604 float
5.5000000e+00 5.9700000e+00 0.0000000e+00 
5.5000000e+00 5.9900000e+00 0.0000000e+00 
5.5266667e+00 5.9700000e+00 0.0000000e+00 
5.5266667e+00 5.9900000e+00 0.0000000e+00 
5.5000000e+00 6.0100000e+00 0.0000000e+00 
5.5266667e+00 6.0100000e+00 0.0000000e+00 
5.5533333e+00 5.9700000e+00 0.0000000e+00 
5.5533333e+00 5.9900000e+00 0.0000000e+00 
5.5000000e+00 6.0300000e+00 0.0000000e+00 
5.5266667e+00 6.0300000e+00 0.0000000e+00 
5.5533333e+00 6.0100000e+00 0.0000000e+00 
5.5800000e+00 5.9700000e+00 0.0000000e+00 
5.5533333e+00 6.0300000e+00 0.0000000e+00 
5.5800000e+00 5.9900000e+00 0.0000000e+00 
5.5800000e+00 6.0100000e+00 0.0000000e+00 
5.5800000e+00 6.0300000e+00 0.0000000e+00 
5.6066667e+00 5.9700000e+00 0.0000000e+00 
5.6066667e+00 5.9900000e+00 0.0000000e+00 
5.6066667e+00 6.0100000e+00 0.0000000e+00 
5.6066667e+00 6.0300000e+00 0.0000000e+00 
5.6333333e+00 5.9700000e+00 0.0000000e+00 
5.6333333e+00 5.9900000e+00 0.0000000e+00 
5.6333333e+00 6.0100000e+00 0.0000000e+00 
5.6333333e+00 6.0300000e+00 0.0000000e+00 
5.6600000e+00 5.9700000e+00 0.0000000e+00 
5.6600000e+00 5.9900000e+00 0.0000000e+00 
5.6600000e+00 6.0100000e+00 0.0000000e+00 
5.6600000e+00 6.0300000e+00 0.0000000e+00 
5.6866667e+00 5.9700000e+00 0.0000000e+00 
5.6866667e+00 5.9900000e+00 0.0000000e+00 
5.6866667e+00 6.0100000e+00 0.0000000e+00 
5.6866667e+00 6.0300000e+00 0.0000000e+00 
5.7133333e+00 5.9700000e+00 0.0000000e+00 
5.7133333e+00 5.9900000e+00 0.0000000e+00 
5.7133333e+00 6.0100000e+00 0.0000000e+00 
5.7133333e+00 6.0300000e+00 0.0000000e+00 
5.7400000e+00 5.9700000e+00 0.0000000e+00 
5.7400000e+00 5.9900000e+00 0.0000000e+00 
5.7400000e+00 6.0100000e+00 0.0000000e+00 
5.7400000e+00 6.0300000e+00 0.0000000e+00 
5.7666667e+00 5.9700000e+00 0.0000000e+00 
5.7666667e+00 5.9900000e+00 0.0000000e+00 
5.7666667e+00 6.0100000e+00 0.0000000e+00 
5.7666667e+00 6.0300000e+00 0.0000000e+00 
5.7933333e+00 5.9700000e+00 0.0000000e+00 
5.7933333e+00 5.9900000e+00 0.0000000e+00 
5.7933333e+00 6.0100000e+00 0.0000000e+00 
5.7933333e+00 6.0300000e+00 0.0000000e+00 
5.8200000e+00 5.9700000e+00 0.0000000e+00 
5.8200000e+00 5.9900000e+00 0.0000000e+00 
5.8200000e+00 6.0100000e+00 0.0000000e+00 
5.8200000e+00 6.0300000e+00 0.0000000e+00 
5.8466667e+00 5.9700000e+00 0.0000000e+00 
5.8466667e+00 5.9900000e+00 0.0000000e+00 
5.8466667e+00 6.0100000e+00 0.0000000e+00 
5.8466667e+00 6.0300000e+00 0.0000000e+00 
5.8733333e+00 5.9700000e+00 0.0000000e+00 
5.8733333e+00 5.9900000e+00 0.0000000e+00 
5.8733333e+00 6.0100000e+00 0.0000000e+00 
5.8733333e+00 6.0300000e+00 0.0000000e+00 
5.9000000e+00 5.9700000e+00 0.0000000e+00 
5.9000000e+00 5.9900000e+00 0.0000000e+00 
5.9000000e+00 6.0100000e+00 0.0000000e+00 
5.9000000e+00 6.0300000e+00 0.0000000e+00 
5.9266667e+00 5.9700000e+00 0.0000000e+00 
5.9266667e+00 5.9900000e+00 0.0000000e+00 
5.9266667e+00 6.0100000e+00 0.0000000e+00 
5.9266667e+00 6.0300000e+00 0.0000000e+00 
5.9533333e+00 5.9700000e+00 0.0000000e+00 
5.9533333e+00 5.9900000e+00 0.0000000e+00 
5.9533333e+00 6.0100000e+00 0.0000000e+00 
5.9533333e+00 6.0300000e+00 0.0000000e+00 
5.9800000e+00 5.9700000e+00 0.0000000e+00 
5.9800000e+00 5.9900000e+00 0.0000000e+00 
5.9800000e+00 6.0100000e+00 0.0000000e+00 
5.9800000e+00 6.0300000e+00 0.0000000e+00 
6.0066667e+00 5.9700000e+00 0.0000000e+00 
6.0066667e+00 5.9900000e+00 0.0000000e+00 
6.0066667e+00 6.0100000e+00 0.0000000e+00 
6.0066667e+00 6.0300000e+00 0.0000000e+00 
6.0333333e+00 5.9700000e+00 0.0000000e+00 
6.0333333e+00 5.9900000e+00 0.0000000e+00 
6.0333333e+00 6.0100000e+00 0.0000000e+00 
6.0333333e+00 6.0300000e+00 0.0000000e+00 
6.0600000e+00 5.9700000e+00 0.0000000e+00 
6.0600000e+00 5.9900000e+00 0.0000000e+00 
6.0600000e+00 6.0100000e+00 0.0000000e+00 
6.0600000e+00 6.0300000e+00 0.0000000e+00 
6.0866667e+00 5.9700000e+00 0.0000000e+00 
6.0866667e+00 5.9900000e+00 0.0000000e+00 
6.0866667e+00 6.0100000e+00 0.0000000e+00 
6.0866667e+00 6.0300000e+00 0.0000000e+00 
6.1133333e+00 5.9700000e+00 0.0000000e+00 
6.1133333e+00 5.9900000e+00 0.0000000e+00 
6.1133333e+00 6.0100000e+00 0.0000000e+00 
6.1133333e+00 6.0300000e+00 0.0000000e+00 
6.1400000e+00 5.9700000e+00 0.0000000e+00 
6.1400000e+00 5.9900000e+00 0.0000000e+00 
6.1400000e+00 6.0100000e+00 0.0000000e+00 
6.1400000e+00 6.0300000e+00 0.0000000e+00 
6.1666667e+00 5.9700000e+00 0.0000000e+00 
6.1666667e+00 5.9900000e+00 0.0000000e+00 
6.1666667e+00 6.0100000e+00 0.0000000e+00 
6.1666667e+00 6.0300000e+00 0.0000000e+00 
6.1933333e+00 5.9700000e+00 0.0000000e+00 
6.1933333e+00 5.9900000e+00 0.0000000e+00 
6.1933333e+00 6.0100000e+00 0.0000000e+00 
6.1933333e+00 6.0300000e+00 0.0000000e+00 
6.2200000e+00 5.9700000e+00 0.0000000e+00 
6.2200000e+00 5.9900000e+00 0.0000000e+00 
6.2200000e+00 6.0100000e+00 0.0000000e+00 
6.2200000e+00 6.0300000e+00 0.0000000e+00 
6.2466667e+00 5.9700000e+00 0.0000000e+00 
6.2466667e+00 5.9900000e+00 0.0000000e+00 
6.2466667e+00 6.0100000e+00 0.0000000e+00 
6.2466667e+00 6.0300000e+00 0.0000000e+00 
6.2733333e+00 5.9700000e+00 0.0000000e+00 
6.2733333e+00 5.9900000e+00 0.0000000e+00 
6.2733333e+00 6.0100000e+00 0.0000000e+00 
6.2733333e+00 6.0300000e+00 0.0000000e+00 
6.3000000e+00 5.9700000e+00 0.0000000e+00 
6.3000000e+00 5.9900000e+00 0.0000000e+00 
6.3000000e+00 6.0100000e+00 0.0000000e+00 
6.3000000e+00 6.0300000e+00 0.0000000e+00 
6.3266667e+00 5.9700000e+00 0.0000000e+00 
6.3266667e+00 5.9900000e+00 0.0000000e+00 
6.3266667e+00 6.0100000e+00 0.0000000e+00 
6.3266667e+00 6.0300000e+00 0.0000000e+00 
6.3533333e+00 5.9700000e+00 0.0000000e+00 
6.3533333e+00 5.9900000e+00 0.0000000e+00 
6.3533333e+00 6.0100000e+00 0.0000000e+00 
6.3533333e+00 6.0300000e+00 0.0000000e+00 
6.3800000e+00 5.9700000e+00 0.0000000e+00 
6.3800000e+00 5.9900000e+00 0.0000000e+00 
6.3800000e+00 6.0100000e+00 0.0000000e+00 
6.3800000e+00 6.0300000e+00 0.0000000e+00 
6.4066667e+00 5.9700000e+00 0.0000000e+00 
6.4066667e+00 5.9900000e+00 0.0000000e+00 
6.4066667e+00 6.0100000e+00 0.0000000e+00 
6.4066667e+00 6.0300000e+00 0.0000000e+00 
6.4333333e+00 5.9700000e+00 0.0000000e+00 
6.4333333e+00 5.9900000e+00 0.0000000e+00 
6.4333333e+00 6.0100000e+00 0.0000000e+00 
6.4333333e+00 6.0300000e+00 0.0000000e+00 
6.4600000e+00 5.9700000e+00 0.0000000e+00 
6.4600000e+00 5.9900000e+00 0.0000000e+00 
6.4600000e+00 6.0100000e+00 0.0000000e+00 
6.4600000e+00 6.0300000e+00 0.0000000e+00 
6.4866667e+00 5.9700000e+00 0.0000000e+00 
6.4866667e+00 5.9900000e+00 0.0000000e+00 
6.4866667e+00 6.0100000e+00 0.0000000e+00 
6.4866667e+00 6.0300000e+00 0.0000000e+00 
6.5133333e+00 5.9700000e+00 0.0000000e+00 
6.5133333e+00 5.9900000e+00 0.0000000e+00 
6.5133333e+00 6.0100000e+00 0.0000000e+00 
6.5133333e+00 6.0300000e+00 0.0000000e+00 
6.5400000e+00 5.9700000e+00 0.0000000e+00 
6.5400000e+00 5.9900000e+00 0.0000000e+00 
6.5400000e+00 6.0100000e+00 0.0000000e+00 
6.5400000e+00 6.0300000e+00 0.0000000e+00 
6.5666667e+00 5.9700000e+00 0.0000000e+00 
6.5666667e+00 5.9900000e+00 0.0000000e+00 
6.5666667e+00 6.0100000e+00 0.0000000e+00 
6.5666667e+00 6.0300000e+00 0.0000000e+00 
6.5933333e+00 5.9700000e+00 0.0000000e+00 
6.5933333e+00 5.9900000e+00 0.0000000e+00 
6.5933333e+00 6.0100000e+00 0.0000000e+00 
6.5933333e+00 6.0300000e+00 0.0000000e+00 
6.6200000e+00 5.9700000e+00 0.0000000e+00 
6.6200000e+00 5.9900000e+00 0.0000000e+00 
6.6200000e+00 6.0100000e+00 0.0000000e+00 
6.6200000e+00 6.0300000e+00 0.0000000e+00 
6.6466667e+00 5.9700000e+00 0.0000000e+00 
6.6466667e+00 5.9900000e+00 0.0000000e+00 
6.6466667e+00 6.0100000e+00 0.0000000e+00 
6.6466667e+00 6.0300000e+00 0.0000000e+00 
6.6733333e+00 5.9700000e+00 0.0000000e+00 
6.6733333e+00 5.9900000e+00 0.0000000e+00 
6.6733333e+00 6.0100000e+00 0.0000000e+00 
6.6733333e+00 6.0300000e+00 0.0000000e+00 
6.7000000e+00 5.9700000e+00 0.0000000e+00 
6.7000000e+00 5.9900000e+00 0.0000000e+00 
6.7000000e+00 6.0100000e+00 0.0000000e+00 
6.7000000e+00 6.0300000e+00 0.0000000e+00 
6.7266667e+00 5.9700000e+00 0.0000000e+00 
6.7266667e+00 5.9900000e+00 0.0000000e+00 
6.7266667e+00 6.0100000e+00 0.0000000e+00 
6.7266667e+00 6.0300000e+00 0.0000000e+00 
6.7533333e+00 5.9700000e+00 0.0000000e+00 
6.7533333e+00 5.9900000e+00 0.0000000e+00 
6.7533333e+00 6.0100000e+00 0.0000000e+00 
6.7533333e+00 6.0300000e+00 0.0000000e+00 
6.7800000e+00 5.9700000e+00 0.0000000e+00 
6.7800000e+00 5.9900000e+00 0.0000000e+00 
6.7800000e+00 6.0100000e+00 0.0000000e+00 
6.7800000e+00 6.0300000e+00 0.0000000e+00 
6.8066667e+00 5.9700000e+00 0.0000000e+00 
6.8066667e+00 5.9900000e+00 0.0000000e+00 
6.8066667e+00 6.0100000e+00 0.0000000e+00 
6.8066667e+00 6.0300000e+00 0.0000000e+00 
6.8333333e+00 5.9700000e+00 0.0000000e+00 
6.8333333e+00 5.9900000e+00 0.0000000e+00 
6.8333333e+00 6.0100000e+00 0.0000000e+00 
6.8333333e+00 6.0300000e+00 0.0000000e+00 
6.8600000e+00 5.9700000e+00 0.0000000e+00 
6.8600000e+00 5.9900000e+00 0.0000000e+00 
6.8600000e+00 6.0100000e+00 0.0000000e+00 
6.8600000e+00 6.0300000e+00 0.0000000e+00 
6.8866667e+00 5.9700000e+00 0.0000000e+00 
6.8866667e+00 5.9900000e+00 0.0000000e+00 
6.8866667e+00 6.0100000e+00 0.0000000e+00 
6.8866667e+00 6.0300000e+00 0.0000000e+00 
6.9133333e+00 5.9700000e+00 0.0000000e+00 
6.9133333e+00 5.9900000e+00 0.0000000e+00 
6.9133333e+00 6.0100000e+00 0.0000000e+00 
6.9133333e+00 6.0300000e+00 0.0000000e+00 
6.9400000e+00 5.9700000e+00 0.0000000e+00 
6.9400000e+00 5.9900000e+00 0.0000000e+00 
6.9400000e+00 6.0100000e+00 0.0000000e+00 
6.9400000e+00 6.0300000e+00 0.0000000e+00 
6.9666667e+00 5.9700000e+00 0.0000000e+00 
6.9666667e+00 5.9900000e+00 0.0000000e+00 
6.9666667e+00 6.0100000e+00 0.0000000e+00 
6.9666667e+00 6.0300000e+00 0.0000000e+00 
6.9933333e+00 5.9700000e+00 0.0000000e+00 
6.9933333e+00 5.9900000e+00 0.0000000e+00 
6.9933333e+00 6.0100000e+00 0.0000000e+00 
6.9933333e+00 6.0300000e+00 0.0000000e+00 
7.0200000e+00 5.9700000e+00 0.0000000e+00 
7.0200000e+00 5.9900000e+00 0.0000000e+00 
[...]
POINT_DATA 604
FIELD FieldData 2
DISPLACEMENT 3 604  float
0.0000000e+00 0.0000000e+00 0.0000000e+00 
0.0000000e+00 0.0000000e+00 0.0000000e+00 
2.0543066e-04 1.2624828e-04 0.0000000e+00 
6.5050246e-05 8.2275017e-05 0.0000000e+00 
0.0000000e+00 0.0000000e+00 0.0000000e+00 
-6.5539676e-05 8.1466243e-05 0.0000000e+00 
4.1194535e-04 4.0314256e-04 0.0000000e+00 
1.3611473e-04 3.6587382e-04 0.0000000e+00 
0.0000000e+00 0.0000000e+00 0.0000000e+00 
-2.0637157e-04 1.2380747e-04 0.0000000e+00 
-1.3967260e-04 3.6374019e-04 0.0000000e+00 
6.1214106e-04 8.7099945e-04 0.0000000e+00 
-4.1649113e-04 3.9727183e-04 0.0000000e+00 
1.9974757e-04 8.3087098e-04 0.0000000e+00 
-2.1136811e-04 8.2625459e-04 0.0000000e+00 
-6.2528107e-04 8.5706034e-04 0.0000000e+00 
8.0427949e-04 1.5182817e-03 0.0000000e+00 
2.5875418e-04 1.4762360e-03 0.0000000e+00 
-2.8588347e-04 1.4686185e-03 0.0000000e+00 
-8.3333676e-04 1.4958721e-03 0.0000000e+00 
9.8733648e-04 2.3438285e-03 0.0000000e+00 
3.1148759e-04 2.2980876e-03 0.0000000e+00 
-3.6369914e-04 2.2862954e-03 0.0000000e+00 
-1.0419337e-03 2.3083495e-03 0.0000000e+00 
1.1603498e-03 3.3415676e-03 0.0000000e+00 
3.5701127e-04 3.2922557e-03 0.0000000e+00 
-4.4592626e-04 3.2760269e-03 0.0000000e+00 
-1.2521476e-03 3.2930466e-03 0.0000000e+00 
1.3224483e-03 4.5092889e-03 0.0000000e+00 
3.9418186e-04 4.4552914e-03 0.0000000e+00 
-5.3369409e-04 4.4336598e-03 0.0000000e+00 
-1.4648196e-03 4.4445413e-03 0.0000000e+00 
1.4726076e-03 5.8431945e-03 0.0000000e+00 
4.2246241e-04 5.7834564e-03 0.0000000e+00 
-6.2753911e-04 5.7555158e-03 0.0000000e+00 
-1.6810254e-03 5.7591657e-03 0.0000000e+00 
1.6102423e-03 7.3378534e-03 0.0000000e+00 
4.4087669e-04 7.2726622e-03 0.0000000e+00 
-7.2850303e-04 7.2383024e-03 0.0000000e+00 
-1.9015215e-03 7.2350684e-03 0.0000000e+00 
1.7344537e-03 8.9916980e-03 0.0000000e+00 
4.4866865e-04 8.9195920e-03 0.0000000e+00 
-8.3729826e-04 8.8778968e-03 0.0000000e+00 
-2.1270278e-03 8.8662717e-03 0.0000000e+00 
1.8447289e-03 1.0798778e-02 0.0000000e+00 
4.4518412e-04 1.0720200e-02 0.0000000e+00 
-9.5464424e-04 1.0671032e-02 0.0000000e+00 
-2.3583430e-03 1.0651521e-02 0.0000000e+00 
1.9402794e-03 1.2757586e-02 0.0000000e+00 
4.2979041e-04 1.2671140e-02 0.0000000e+00 
-1.0811325e-03 1.2613697e-02 0.0000000e+00 
-2.5960285e-03 1.2584856e-02 0.0000000e+00 
2.0207634e-03 1.4862172e-02 0.0000000e+00 
4.0194812e-04 1.4768409e-02 0.0000000e+00 
-1.2173766e-03 1.4702649e-02 0.0000000e+00 
-2.8407607e-03 1.4665091e-02 0.0000000e+00 
2.0854791e-03 1.7111112e-02 0.0000000e+00 
3.6113755e-04 1.7008706e-02 0.0000000e+00 
-1.3638445e-03 1.6933910e-02 0.0000000e+00 
-3.0929664e-03 1.6886265e-02 0.0000000e+00 
2.1342263e-03 1.9498459e-02 0.0000000e+00 
3.0693799e-04 1.9388062e-02 0.0000000e+00 
-1.5210412e-03 1.9304275e-02 0.0000000e+00 
-3.3532259e-03 1.9247251e-02 0.0000000e+00 
2.1663864e-03 2.2022865e-02 0.0000000e+00 
2.3893565e-04 2.1903219e-02 0.0000000e+00 
-1.6893183e-03 2.1809799e-02 0.0000000e+00 
-3.6218372e-03 2.1742095e-02 0.0000000e+00 
2.1818916e-03 2.4678390e-02 0.0000000e+00 
1.5682136e-04 2.4550237e-02 0.0000000e+00 
-1.8690791e-03 2.4447314e-02 0.0000000e+00 
-3.8992912e-03 2.4369729e-02 0.0000000e+00 
2.1802021e-03 2.7463757e-02 0.0000000e+00 
6.0279496e-05 2.7325903e-02 0.0000000e+00 
-2.0605666e-03 2.7212906e-02 0.0000000e+00 
-4.1857626e-03 2.7124206e-02 0.0000000e+00 
2.1613740e-03 3.0373040e-02 0.0000000e+00 
-5.0893429e-05 3.0226309e-02 0.0000000e+00 
-2.2640877e-03 3.0103444e-02 0.0000000e+00 
-4.4816583e-03 3.0004505e-02 0.0000000e+00 
2.1249213e-03 3.3405017e-02 0.0000000e+00 
-1.7691181e-04 3.3248297e-02 0.0000000e+00 
-2.4797705e-03 3.3115031e-02 0.0000000e+00 
-4.7870587e-03 3.3004697e-02 0.0000000e+00 
2.0709963e-03 3.6553757e-02 0.0000000e+00 
-3.1786221e-04 3.6387901e-02 0.0000000e+00 
-2.7078421e-03 3.6244659e-02 0.0000000e+00 
-5.1023126e-03 3.6123821e-02 0.0000000e+00 
1.9994421e-03 3.9817562e-02 0.0000000e+00 
-4.7408668e-04 3.9642008e-02 0.0000000e+00 
-2.9485630e-03 3.9488417e-02 0.0000000e+00 
-5.4273323e-03 3.9356580e-02 0.0000000e+00 
1.9100352e-03 4.3192948e-02 0.0000000e+00 
-6.4527515e-04 4.3007225e-02 0.0000000e+00 
-3.2016286e-03 4.2842962e-02 0.0000000e+00 
-5.7623782e-03 4.2699571e-02 0.0000000e+00 
1.8031031e-03 4.6674618e-02 0.0000000e+00 
-8.3160071e-04 4.6479687e-02 0.0000000e+00 
-3.4673358e-03 4.6305266e-02 0.0000000e+00 
-6.1074781e-03 4.6151325e-02 0.0000000e+00 
1.6783221e-03 5.0261529e-02 0.0000000e+00 
-1.0330948e-03 5.0056401e-02 0.0000000e+00 
-3.7455788e-03 4.9871439e-02 0.0000000e+00 
-6.4624466e-03 4.9705941e-02 0.0000000e+00 
1.5360956e-03 5.3947793e-02 0.0000000e+00 
-1.2496340e-03 5.3733549e-02 0.0000000e+00 
-4.0363704e-03 5.3538484e-02 0.0000000e+00 
-6.8274685e-03 5.3362544e-02 0.0000000e+00 
1.3761748e-03 5.7732398e-02 0.0000000e+00 
-1.4811691e-03 5.7508087e-02 0.0000000e+00 
-4.3395455e-03 5.7302621e-02 0.0000000e+00 
-7.2022472e-03 5.7115265e-02 0.0000000e+00 
1.1990732e-03 6.1609470e-02 0.0000000e+00 
-1.7275124e-03 6.1376236e-02 0.0000000e+00 
-4.6550552e-03 6.1160862e-02 0.0000000e+00 
-7.5868899e-03 6.0963265e-02 0.0000000e+00 
1.0045927e-03 6.5578039e-02 0.0000000e+00 
-1.9885489e-03 6.5334979e-02 0.0000000e+00 
-4.9826608e-03 6.5109453e-02 0.0000000e+00 
-7.9810148e-03 6.4900691e-02 0.0000000e+00 
7.9332927e-04 6.9632253e-02 0.0000000e+00 
-2.2640192e-03 6.9380563e-02 0.0000000e+00 
-5.3222484e-03 6.9145425e-02 0.0000000e+00 
-8.3846746e-03 6.8926726e-02 0.0000000e+00 
5.6513422e-04 7.3771171e-02 0.0000000e+00 
-2.5537470e-03 7.3509995e-02 0.0000000e+00 
-5.6735109e-03 7.3265049e-02 0.0000000e+00 
-8.7974089e-03 7.3035535e-02 0.0000000e+00 
3.2067969e-04 7.7988966e-02 0.0000000e+00 
-2.8574073e-03 7.7719547e-02 0.0000000e+00 
-6.0362747e-03 7.7465379e-02 0.0000000e+00 
-9.2192202e-03 7.7226322e-02 0.0000000e+00 
5.9863840e-05 8.2284723e-02 0.0000000e+00 
-3.1747680e-03 8.2006249e-02 0.0000000e+00 
-6.4101705e-03 8.1742707e-02 0.0000000e+00 
-9.6495755e-03 8.1493276e-02 0.0000000e+00 
-2.1657177e-04 8.6652651e-02 0.0000000e+00 
-3.5054433e-03 8.6366398e-02 0.0000000e+00 
-6.7949698e-03 8.6094108e-02 0.0000000e+00 
-1.0088429e-02 8.5835610e-02 0.0000000e+00 
-5.0870550e-04 9.1091840e-02 0.0000000e+00 
-3.8491407e-03 9.0797064e-02 0.0000000e+00 
-7.1902321e-03 9.0515884e-02 0.0000000e+00 
-1.0535207e-02 9.0247540e-02 0.0000000e+00 
-8.1575327e-04 9.5596519e-02 0.0000000e+00 
-4.2053947e-03 9.5294479e-02 0.0000000e+00 
-7.5956956e-03 9.5005219e-02 0.0000000e+00 
-1.0989840e-02 9.4728312e-02 0.0000000e+00 
-1.1374476e-03 1.0016527e-01 0.0000000e+00 
-4.5740787e-03 9.9855740e-02 0.0000000e+00 
-8.0110993e-03 9.9558385e-02 0.0000000e+00 
-1.1451677e-02 9.9272789e-02 0.0000000e+00 
-1.4735385e-03 1.0479482e-01 0.0000000e+00 
-4.9544097e-03 1.0447769e-01 0.0000000e+00 
-8.4356683e-03 1.0417227e-01 0.0000000e+00 
-1.1920503e-02 1.0387776e-01 0.0000000e+00 
-1.8231968e-03 1.0948009e-01 0.0000000e+00 
-5.3460866e-03 1.0915666e-01 0.0000000e+00 
-8.8692628e-03 1.0884401e-01 0.0000000e+00 
-1.2395946e-02 1.0854193e-01 0.0000000e+00 
-2.1863993e-03 1.1422024e-01 0.0000000e+00 
-5.7487344e-03 1.1388983e-01 0.0000000e+00 
-9.3113153e-03 1.1356991e-01 0.0000000e+00 
-1.2877292e-02 1.1325957e-01 0.0000000e+00 
-2.5622445e-03 1.1900962e-01 0.0000000e+00 
-6.1617914e-03 1.1867361e-01 0.0000000e+00 
-9.7614439e-03 1.1834713e-01 0.0000000e+00 
-1.3364398e-02 1.1802996e-01 0.0000000e+00 
-2.9506586e-03 1.2384737e-01 0.0000000e+00 
-6.5848334e-03 1.2350513e-01 0.0000000e+00 
-1.0219071e-02 1.2317210e-01 0.0000000e+00 
-1.3856492e-02 1.2284740e-01 0.0000000e+00 
-3.3506829e-03 1.2872793e-01 0.0000000e+00 
-7.0172785e-03 1.2838082e-01 0.0000000e+00 
-1.0683794e-02 1.2804200e-01 0.0000000e+00 
-1.4353394e-02 1.2771122e-01 0.0000000e+00 
-3.7622158e-03 1.3365043e-01 0.0000000e+00 
-7.4586740e-03 1.3329786e-01 0.0000000e+00 
-1.1155005e-02 1.3295327e-01 0.0000000e+00 
-1.4854295e-02 1.3261575e-01 0.0000000e+00 
-4.1842698e-03 1.3860938e-01 0.0000000e+00 
-7.9084108e-03 1.3825273e-01 0.0000000e+00 
-1.1632279e-02 1.3790314e-01 0.0000000e+00 
-1.5359003e-02 1.3756034e-01 0.0000000e+00 
-4.6167178e-03 1.4360392e-01 0.0000000e+00 
-8.3660126e-03 1.4324262e-01 0.0000000e+00 
-1.2114985e-02 1.4288807e-01 0.0000000e+00 
-1.5866681e-02 1.4253935e-01 0.0000000e+00 
-5.0585499e-03 1.4862865e-01 0.0000000e+00 
-8.8308498e-03 1.4826407e-01 0.0000000e+00 
-1.2602680e-02 1.4790534e-01 0.0000000e+00 
-1.6377128e-02 1.4755217e-01 0.0000000e+00 
-5.5096172e-03 1.5368271e-01 0.0000000e+00 
-9.3024285e-03 1.5331432e-01 0.0000000e+00 
-1.3094719e-02 1.5295146e-01 0.0000000e+00 
-1.6889487e-02 1.5259322e-01 0.0000000e+00 
-5.9688945e-03 1.5876079e-01 0.0000000e+00 
-9.7801050e-03 1.5838995e-01 0.0000000e+00 
-1.3590646e-02 1.5802374e-01 0.0000000e+00 
-1.7403552e-02 1.5766190e-01 0.0000000e+00 
-6.4362353e-03 1.6386205e-01 0.0000000e+00 
-1.0263365e-02 1.6348826e-01 0.0000000e+00 
-1.4089792e-02 1.6311875e-01 0.0000000e+00 
-1.7918475e-02 1.6275270e-01 0.0000000e+00 
-6.9106230e-03 1.6898126e-01 0.0000000e+00 
-1.0751533e-02 1.6860582e-01 0.0000000e+00 
-1.4591713e-02 1.6823392e-01 0.0000000e+00 
-1.8434070e-02 1.6786508e-01 0.0000000e+00 
-7.3916011e-03 1.7411712e-01 0.0000000e+00 
-1.1244274e-02 1.7373996e-01 0.0000000e+00 
-1.5095962e-02 1.7336581e-01 0.0000000e+00 
-1.8949493e-02 1.7299420e-01 0.0000000e+00 
-7.8787038e-03 1.7926671e-01 0.0000000e+00 
-1.1740679e-02 1.7888789e-01 0.0000000e+00 
-1.5601637e-02 1.7851162e-01 0.0000000e+00 
-1.9464417e-02 1.7813713e-01 0.0000000e+00 
-8.3709718e-03 1.8442558e-01 0.0000000e+00 
-1.2240289e-02 1.8404634e-01 0.0000000e+00 
-1.6108486e-02 1.8366887e-01 0.0000000e+00 
-1.9978411e-02 1.8329290e-01 0.0000000e+00 
-8.8682321e-03 1.8959297e-01 0.0000000e+00 
-1.2742618e-02 1.8921285e-01 0.0000000e+00 
-1.6615834e-02 1.8883421e-01 0.0000000e+00 
-2.0490626e-02 1.8845618e-01 0.0000000e+00 
-9.3694944e-03 1.9476399e-01 0.0000000e+00 
-1.3247014e-02 1.9438428e-01 0.0000000e+00 
-1.7123233e-02 1.9400523e-01 0.0000000e+00 
-2.1000921e-02 1.9362659e-01 0.0000000e+00 
-9.8745665e-03 1.9993792e-01 0.0000000e+00 
-1.3752979e-02 1.9955815e-01 0.0000000e+00 
-1.7630049e-02 1.9917875e-01 0.0000000e+00 
-2.1508436e-02 1.9879888e-01 0.0000000e+00 
-1.0382456e-02 2.0511000e-01 0.0000000e+00 
-1.4259889e-02 2.0473141e-01 0.0000000e+00 
-1.8135857e-02 2.0435241e-01 0.0000000e+00 
-2.2013039e-02 2.0397277e-01 0.0000000e+00 
-1.0892974e-02 2.1027954e-01 0.0000000e+00 
-1.4767260e-02 2.0990168e-01 0.0000000e+00 
-1.8640043e-02 2.0952313e-01 0.0000000e+00 
-2.2513887e-02 2.0914308e-01 0.0000000e+00 
-1.1405153e-02 2.1544194e-01 0.0000000e+00 
-1.5274486e-02 2.1506603e-01 0.0000000e+00 
-1.9142201e-02 2.1468865e-01 0.0000000e+00 
-2.3010879e-02 2.1430962e-01 0.0000000e+00 
-1.1918811e-02 2.2059657e-01 0.0000000e+00 
-1.5781101e-02 2.2022213e-01 0.0000000e+00 
-1.9641742e-02 2.1984598e-01 0.0000000e+00 
-2.3503192e-02 2.1946732e-01 0.0000000e+00 
-1.2433008e-02 2.2573896e-01 0.0000000e+00 
-1.6286524e-02 2.2536718e-01 0.0000000e+00 
-2.0138284e-02 2.2499294e-01 0.0000000e+00 
-2.3990762e-02 2.2461608e-01 0.0000000e+00 
-1.2947574e-02 2.3086854e-01 0.0000000e+00 
-1.6790312e-02 2.3049895e-01 0.0000000e+00 
-2.0631270e-02 2.3012666e-01 0.0000000e+00 
-2.4472792e-02 2.2975092e-01 0.0000000e+00 
-1.3461602e-02 2.3598103e-01 0.0000000e+00 
-1.7291915e-02 2.3561477e-01 0.0000000e+00 
-2.1120347e-02 2.3524510e-01 0.0000000e+00 
-2.4949255e-02 2.3487186e-01 0.0000000e+00 
-1.3974956e-02 2.4107592e-01 0.0000000e+00 
-1.7790906e-02 2.4071253e-01 0.0000000e+00 
-2.1604979e-02 2.4034545e-01 0.0000000e+00 
-2.5419404e-02 2.3997404e-01 0.0000000e+00 
-1.4486780e-02 2.4614906e-01 0.0000000e+00 
-1.8286753e-02 2.4578959e-01 0.0000000e+00 
-2.2084857e-02 2.4542589e-01 0.0000000e+00 
-2.5883271e-02 2.4505761e-01 0.0000000e+00 
-1.4996694e-02 2.5119965e-01 0.0000000e+00 
-1.8779212e-02 2.5084397e-01 0.0000000e+00 
-2.2559706e-02 2.5048366e-01 0.0000000e+00 
-2.6340173e-02 2.5011843e-01 0.0000000e+00 
-1.5504315e-02 2.5622557e-01 0.0000000e+00 
-1.9267574e-02 2.5587364e-01 0.0000000e+00 
-2.3028818e-02 2.5551676e-01 0.0000000e+00 
-2.6790016e-02 2.5515433e-01 0.0000000e+00 
-1.6008897e-02 2.6122351e-01 0.0000000e+00 
-1.9751550e-02 2.6087630e-01 0.0000000e+00 
-2.3492151e-02 2.6052355e-01 0.0000000e+00 
-2.7232659e-02 2.6016519e-01 0.0000000e+00 
-1.6510364e-02 2.6619327e-01 0.0000000e+00 
-2.0230837e-02 2.6585028e-01 0.0000000e+00 
-2.3949265e-02 2.6550157e-01 0.0000000e+00 
-2.7667452e-02 2.6514654e-01 0.0000000e+00 
-1.7007991e-02 2.7113126e-01 0.0000000e+00 
-2.0705018e-02 2.7079343e-01 0.0000000e+00 
-2.4399938e-02 2.7044933e-01 0.0000000e+00 
-2.8094568e-02 2.7009889e-01 0.0000000e+00 
-1.7501713e-02 2.7603734e-01 0.0000000e+00 
-2.1173804e-02 2.7570418e-01 0.0000000e+00 
-2.4843808e-02 2.7536457e-01 0.0000000e+00 
-2.8513378e-02 2.7501796e-01 0.0000000e+00 
-1.7990835e-02 2.8090814e-01 0.0000000e+00 
-2.1636835e-02 2.8058053e-01 0.0000000e+00 
-2.5280700e-02 2.8024595e-01 0.0000000e+00 
-2.8924091e-02 2.7990438e-01 0.0000000e+00 
-1.8475320e-02 2.8574361e-01 0.0000000e+00 
-2.2093862e-02 2.8542104e-01 0.0000000e+00 
-2.5710298e-02 2.8509136e-01 0.0000000e+00 
-2.9326120e-02 2.8475404e-01 0.0000000e+00 
-1.8954524e-02 2.9054060e-01 0.0000000e+00 
-2.2544569e-02 2.9022390e-01 0.0000000e+00 
-2.6132469e-02 2.8989960e-01 0.0000000e+00 
-2.9719727e-02 2.8956772e-01 0.0000000e+00 
-1.9428441e-02 2.9529917e-01 0.0000000e+00 
-2.2988745e-02 2.9498781e-01 0.0000000e+00 
-2.6546945e-02 2.9466875e-01 0.0000000e+00 
-3.0104365e-02 2.9434149e-01 0.0000000e+00 
-1.9896476e-02 3.0001637e-01 0.0000000e+00 
-2.3426121e-02 2.9971114e-01 0.0000000e+00 
-2.6953633e-02 2.9939776e-01 0.0000000e+00 
-3.0480349e-02 2.9907626e-01 0.0000000e+00 
-2.0358652e-02 3.0469240e-01 0.0000000e+00 
-2.3856526e-02 3.0439276e-01 0.0000000e+00 
-2.7352316e-02 3.0408487e-01 0.0000000e+00 
-3.0847173e-02 3.0376830e-01 0.0000000e+00 
-2.0814427e-02 3.0932451e-01 0.0000000e+00 
-2.4279735e-02 3.0903119e-01 0.0000000e+00 
-2.7742936e-02 3.0872921e-01 0.0000000e+00 
-3.1205200e-02 3.0841865e-01 0.0000000e+00 
-2.1263869e-02 3.1391302e-01 0.0000000e+00 
-2.4695609e-02 3.1362547e-01 0.0000000e+00 
-2.8125320e-02 3.1332918e-01 0.0000000e+00 
-3.1553983e-02 3.1302380e-01 0.0000000e+00 
-2.1706494e-02 3.1845540e-01 0.0000000e+00 
-2.5103958e-02 3.1817428e-01 0.0000000e+00 
-2.8499454e-02 3.1788414e-01 0.0000000e+00 
-3.1893943e-02 3.1758492e-01 0.0000000e+00 
-2.2142190e-02 3.2295177e-01 0.0000000e+00 
-2.5504800e-02 3.2267678e-01 0.0000000e+00 
-2.8865403e-02 3.2239262e-01 0.0000000e+00 
-3.2224719e-02 3.2209925e-01 0.0000000e+00 
-2.2570835e-02 3.2740126e-01 0.0000000e+00 
-2.5897794e-02 3.2713218e-01 0.0000000e+00 
-2.9222825e-02 3.2685382e-01 0.0000000e+00 
-3.2546568e-02 3.2656591e-01 0.0000000e+00 
-2.2992043e-02 3.3180220e-01 0.0000000e+00 
-2.6282961e-02 3.3153958e-01 0.0000000e+00 
-2.9571978e-02 3.3126742e-01 0.0000000e+00 
-3.2859749e-02 3.3098587e-01 0.0000000e+00 
-2.3405972e-02 3.3615529e-01 0.0000000e+00 
-2.6660292e-02 3.3589856e-01 0.0000000e+00 
-2.9912795e-02 3.3563231e-01 0.0000000e+00 
-3.3163927e-02 3.3535626e-01 0.0000000e+00 
-2.3812274e-02 3.4045868e-01 0.0000000e+00 
-2.7029717e-02 3.4020837e-01 0.0000000e+00 
-3.0245348e-02 3.3994830e-01 0.0000000e+00 
-3.3459647e-02 3.3967865e-01 0.0000000e+00 
-2.4211124e-02 3.4471319e-01 0.0000000e+00 
-2.7391242e-02 3.4446872e-01 0.0000000e+00 
-3.0569642e-02 3.4421454e-01 0.0000000e+00 
-3.3746591e-02 3.4395040e-01 0.0000000e+00 
-2.4602198e-02 3.4891719e-01 0.0000000e+00 
-2.7744845e-02 3.4867905e-01 0.0000000e+00 
-3.0885784e-02 3.4843099e-01 0.0000000e+00 
-3.4025324e-02 3.4817323e-01 0.0000000e+00 
-2.4985698e-02 3.5307163e-01 0.0000000e+00 
-2.8090561e-02 3.5283923e-01 0.0000000e+00 
-3.1193818e-02 3.5259699e-01 0.0000000e+00 
-3.4295559e-02 3.5234472e-01 0.0000000e+00 
-2.5361337e-02 3.5717511e-01 0.0000000e+00 
-2.8428403e-02 3.5694889e-01 0.0000000e+00 
-3.1493878e-02 3.5671268e-01 0.0000000e+00 
-3.4557898e-02 3.5646671e-01 0.0000000e+00 
-2.5729344e-02 3.6122870e-01 0.0000000e+00 
-2.8758435e-02 3.6100807e-01 0.0000000e+00 
-3.1786043e-02 3.6077757e-01 0.0000000e+00 
-3.4812081e-02 3.6053701e-01 0.0000000e+00 
-2.6089468e-02 3.6523121e-01 0.0000000e+00 
-2.9080701e-02 3.6501659e-01 0.0000000e+00 
-3.2070469e-02 3.6479197e-01 0.0000000e+00 
-3.5058739e-02 3.6455760e-01 0.0000000e+00 
-2.6441960e-02 3.6918388e-01 0.0000000e+00 
-2.9395290e-02 3.6897466e-01 0.0000000e+00 
-3.2347269e-02 3.6875558e-01 0.0000000e+00 
-3.5297635e-02 3.6852651e-01 0.0000000e+00 
-2.6786600e-02 3.7308570e-01 0.0000000e+00 
-2.9702276e-02 3.7288226e-01 0.0000000e+00 
-3.2616617e-02 3.7266889e-01 0.0000000e+00 
-3.5529426e-02 3.7244584e-01 0.0000000e+00 
-2.7123675e-02 3.7693803e-01 0.0000000e+00 
-3.0001762e-02 3.7673979e-01 0.0000000e+00 
-3.2878650e-02 3.7653176e-01 0.0000000e+00 
-3.5753909e-02 3.7631386e-01 0.0000000e+00 
-2.7453002e-02 3.8074009e-01 0.0000000e+00 
-3.0293842e-02 3.8054736e-01 0.0000000e+00 
-3.3133562e-02 3.8034488e-01 0.0000000e+00 
-3.5971766e-02 3.8013278e-01 0.0000000e+00 
-2.7774720e-02 3.8449311e-01 0.0000000e+00 
-3.0578740e-02 3.8430552e-01 0.0000000e+00 
-3.3381659e-02 3.8410828e-01 0.0000000e+00 
-3.6182869e-02 3.8390154e-01 0.0000000e+00 
-2.8088936e-02 3.8819760e-01 0.0000000e+00 
-3.0856397e-02 3.8801480e-01 0.0000000e+00 
-3.3622882e-02 3.8782249e-01 0.0000000e+00 
-3.6387662e-02 3.8762066e-01 0.0000000e+00 
-2.8395520e-02 3.9185344e-01 0.0000000e+00 
-3.1127045e-02 3.9167570e-01 0.0000000e+00 
-3.3857632e-02 3.9148851e-01 0.0000000e+00 
-3.6586625e-02 3.9129215e-01 0.0000000e+00 
-2.8694822e-02 3.9546239e-01 0.0000000e+00 
-3.1390860e-02 3.9528913e-01 0.0000000e+00 
-3.4086088e-02 3.9510666e-01 0.0000000e+00 
-3.6779623e-02 3.9491495e-01 0.0000000e+00 
-2.8986729e-02 3.9902420e-01 0.0000000e+00 
-3.1647997e-02 3.9885569e-01 0.0000000e+00 
-3.4308469e-02 3.9867803e-01 0.0000000e+00 
-3.6967355e-02 3.9849152e-01 0.0000000e+00 
-2.9271595e-02 4.0254073e-01 0.0000000e+00 
-3.1898627e-02 4.0237638e-01 0.0000000e+00 
-3.4524993e-02 4.0220315e-01 0.0000000e+00 
-3.7149676e-02 4.0202103e-01 0.0000000e+00 
-2.9549311e-02 4.0601188e-01 0.0000000e+00 
-3.2142926e-02 4.0585194e-01 0.0000000e+00 
-3.4735886e-02 4.0568322e-01 0.0000000e+00 
-3.7327276e-02 4.0550601e-01 0.0000000e+00 
-2.9820246e-02 4.0943962e-01 0.0000000e+00 
-3.2381073e-02 4.0928351e-01 0.0000000e+00 
-3.4941378e-02 4.0911892e-01 0.0000000e+00 
-3.7500018e-02 4.0894584e-01 0.0000000e+00 
-3.0084301e-02 4.1282399e-01 0.0000000e+00 
-3.2613254e-02 4.1267197e-01 0.0000000e+00 
-3.5141693e-02 4.1251156e-01 0.0000000e+00 
-3.7668586e-02 4.1234309e-01 0.0000000e+00 
-3.0341857e-02 4.1616707e-01 0.0000000e+00 
-3.2839656e-02 4.1601855e-01 0.0000000e+00 
-3.5337072e-02 4.1586197e-01 0.0000000e+00 
-3.7832850e-02 4.1569735e-01 0.0000000e+00 
-3.0592828e-02 4.1946904e-01 0.0000000e+00 
-3.3060472e-02 4.1932426e-01 0.0000000e+00 
-3.5527735e-02 4.1917155e-01 0.0000000e+00 
-3.7993483e-02 4.1901123e-01 0.0000000e+00 
-3.0837604e-02 4.2273207e-01 0.0000000e+00 
-3.3275890e-02 4.2259045e-01 0.0000000e+00 
-3.5713927e-02 4.2244126e-01 0.0000000e+00 
-3.8150360e-02 4.2228451e-01 0.0000000e+00 
-3.1076107e-02 4.2595645e-01 0.0000000e+00 
-3.3486113e-02 4.2581823e-01 0.0000000e+00 
-3.5895864e-02 4.2567258e-01 0.0000000e+00 
-3.8304137e-02 4.2551981e-01 0.0000000e+00 
-3.1308746e-02 4.2914444e-01 0.0000000e+00 
-3.3691326e-02 4.2900905e-01 0.0000000e+00 
-3.6073789e-02 4.2886658e-01 0.0000000e+00 
-3.8454701e-02 4.2871711e-01 0.0000000e+00 
-3.1535462e-02 4.3229640e-01 0.0000000e+00 
-3.3891723e-02 4.3216406e-01 0.0000000e+00 
-3.6247915e-02 4.3202486e-01 0.0000000e+00 
-3.8602691e-02 4.3187902e-01 0.0000000e+00 
-3.1756536e-02 4.3541447e-01 0.0000000e+00 
-3.4087593e-02 4.3528482e-01 0.0000000e+00 
-3.6418566e-02 4.3514860e-01 0.0000000e+00 
-3.8748041e-02 4.3500600e-01 0.0000000e+00 
-3.1972206e-02 4.3850003e-01 0.0000000e+00 
-3.4278980e-02 4.3837274e-01 0.0000000e+00 