# vtk DataFile Version 4.0
vtk output
ASCII
DATASET UNSTRUCTURED_GRID
POINTS 604 float
5.5000000e+00 5.9700000e+00 0.0000000e+00 
5.5000000e+00 5.9900000e+00 0.0000000e+00 
5.5266667e+00 5.9700000e+00 0.0000000e+00 
5.5266667e+00 5.9900000e+00 0.0000000e+00 
5.5000000e+00 6.0100000e+00 0.0000000e+00 
5.5266667e+00 6.0100000e+00 0.0000000e+00 
5.5533333e+00 5.9700000e+00 0.0000000e+00 
5.5533333e+00 5.9900000e+00 0.0000000e+00 
5.5000000e+00 6.0300000e+00 0.0000000e+00 
5.5266667e+00 6.0300000e+00 0.0000000e+00 
5.5533333e+00 6.0100000e+00 0.0000000e+00 
5.5800000e+00 5.9700000e+00 0.0000000e+00 
5.5533333e+00 6.0300000e+00 0.0000000e+00 
5.5800000e+00 5.9900000e+00 0.0000000e+00 
5.5800000e+00 6.0100000e+00 0.0000000e+00 
5.5800000e+00 6.0300000e+00 0.0000000e+00 
5.6066667e+00 5.9700000e+00 0.0000000e+00 
5.6066667e+00 5.9900000e+00 0.0000000e+00 
5.6066667e+00 6.0100000e+00 0.0000000e+00 
5.6066667e+00 6.0300000e+00 0.0000000e+00 
5.6333333e+00 5.9700000e+00 0.0000000e+00 
5.6333333e+00 5.9900000e+00 0.0000000e+00 
5.6333333e+00 6.0100000e+00 0.0000000e+00 
5.6333333e+00 6.0300000e+00 0.0000000e+00 
5.6600000e+00 5.9700000e+00 0.0000000e+00 
5.6600000e+00 5.9900000e+00 0.0000000e+00 
5.6600000e+00 6.0100000e+00 0.0000000e+00 
5.6600000e+00 6.0300000e+00 0.0000000e+00 
5.6866667e+00 5.9700000e+00 0.0000000e+00 
5.6866667e+00 5.9900000e+00 0.0000000e+00 
5.6866667e+00 6.0100000e+00 0.0000000e+00 
5.6866667e+00 6.0300000e+00 0.0000000e+00 
5.7133333e+00 5.9700000e+00 0.0000000e+00 
5.7133333e+00 5.9900000e+00 0.0000000e+00 
5.7133333e+00 6.0100000e+00 0.0000000e+00 
5.7133333e+00 6.0300000e+00 0.0000000e+00 
5.7400000e+00 5.9700000e+00 0.0000000e+00 
5.7400000e+00 5.9900000e+00 0.0000000e+00 
5.7400000e+00 6.0100000e+00 0.0000000e+00 
5.7400000e+00 6.0300000e+00 0.0000000e+00 
5.7666667e+00 5.9700000e+00 0.0000000e+00 
5.7666667e+00 5.9900000e+00 0.0000000e+00 
5.7666667e+00 6.0100000e+00 0.0000000e+00 
5.7666667e+00 6.0300000e+00 0.0000000e+00 
5.7933333e+00 5.9700000e+00 0.0000000e+00 
5.7933333e+00 5.9900000e+00 0.0000000e+00 
5.7933333e+00 6.0100000e+00 0.0000000e+00 
5.7933333e+00 6.0300000e+00 0.0000000e+00 
5.8200000e+00 5.9700000e+00 0.0000000e+00 
5.8200000e+00 5.9900000e+00 0.0000000e+00 
5.8200000e+00 6.0100000e+00 0.0000000e+00 
5.8200000e+00 6.0300000e+00 0.0000000e+00 
5.8466667e+00 5.9700000e+00 0.0000000e+00 
5.8466667e+00 5.9900000e+00 0.0000000e+00 
5.8466667e+00 6.0100000e+00 0.0000000e+00 
5.8466667e+00 6.0300000e+00 0.0000000e+00 
5.8733333e+00 5.9700000e+00 0.0000000e+00 
5.8733333e+00 5.9900000e+00 0.0000000e+00 
5.8733333e+00 6.0100000e+00 0.0000000e+00 
5.8733333e+00 6.0300000e+00 0.0000000e+00 
5.9000000e+00 5.9700000e+00 0.0000000e+00 
5.9000000e+00 5.9900000e+00 0.0000000e+00 
5.9000000e+00 6.0100000e+00 0.0000000e+00 
5.9000000e+00 6.0300000e+00 0.0000000e+00 
5.9266667e+00 5.9700000e+00 0.0000000e+00 
5.9266667e+00 5.9900000e+00 0.0000000e+00 
5.9266667e+00 6.0100000e+00 0.0000000e+00 
5.9266667e+00 6.0300000e+00 0.0000000e+00 
5.9533333e+00 5.9700000e+00 0.0000000e+00 
5.9533333e+00 5.9900000e+00 0.0000000e+00 
5.9533333e+00 6.0100000e+00 0.0000000e+00 
5.9533333e+00 6.0300000e+00 0.0000000e+00 
5.9800000e+00 5.9700000e+00 0.0000000e+00 
5.9800000e+00 5.9900000e+00 0.0000000e+00 
5.9800000e+00 6.0100000e+00 0.0000000e+00 
5.9800000e+00 6.0300000e+00 0.0000000e+00 
6.0066667e+00 5.9700000e+00 0.0000000e+00 
6.0066667e+00 5.9900000e+00 0.0000000e+00 
6.0066667e+00 6.0100000e+00 0.0000000e+00 
6.0066667e+00 6.0300000e+00 0.0000000e+00 
6.0333333e+00 5.9700000e+00 0.0000000e+00 
6.0333333e+00 5.9900000e+00 0.0000000e+00 
6.0333333e+00 6.0100000e+00 0.0000000e+00 
6.0333333e+00 6.0300000e+00 0.0000000e+00 
6.0600000e+00 5.9700000e+00 0.0000000e+00 
6.0600000e+00 5.9900000e+00 0.0000000e+00 
6.0600000e+00 6.0100000e+00 0.0000000e+00 
6.0600000e+00 6.0300000e+00 0.0000000e+00 
6.0866667e+00 5.9700000e+00 0.0000000e+00 
6.0866667e+00 5.9900000e+00 0.0000000e+00 
6.0866667e+00 6.0100000e+00 0.0000000e+00 
6.0866667e+00 6.0300000e+00 0.0000000e+00 
6.1133333e+00 5.9700000e+00 0.0000000e+00 
6.1133333e+00 5.9900000e+00 0.0000000e+00 
6.1133333e+00 6.0100000e+00 0.0000000e+00 
6.1133333e+00 6.0300000e+00 0.0000000e+00 
6.1400000e+00 5.9700000e+00 0.0000000e+00 
6.1400000e+00 5.9900000e+00 0.0000000e+00 
6.1400000e+00 6.0100000e+00 0.0000000e+00 
6.1400000e+00 6.0300000e+00 0.0000000e+00 
6.1666667e+00 5.9700000e+00 0.0000000e+00 
6.1666667e+00 5.9900000e+00 0.0000000e+00 
6.1666667e+00 6.0100000e+00 0.0000000e+00 
6.1666667e+00 6.0300000e+00 0.0000000e+00 
6.1933333e+00 5.9700000e+00 0.0000000e+00 
6.1933333e+00 5.9900000e+00 0.0000000e+00 
6.1933333e+00 6.0100000e+00 0.0000000e+00 
6.1933333e+00 6.0300000e+00 0.0000000e+00 
6.2200000e+00 5.9700000e+00 0.0000000e+00 
6.2200000e+00 5.9900000e+00 0.0000000e+00 
6.2200000e+00 6.0100000e+00 0.0000000e+00 
6.2200000e+00 6.0300000e+00 0.0000000e+00 
6.2466667e+00 5.9700000e+00 0.0000000e+00 
6.2466667e+00 5.9900000e+00 0.0000000e+00 
6.2466667e+00 6.0100000e+00 0.0000000e+00 
6.2466667e+00 6.0300000e+00 0.0000000e+00 
6.2733333e+00 5.9700000e+00 0.0000000e+00 
6.2733333e+00 5.9900000e+00 0.0000000e+00 
6.2733333e+00 6.0100000e+00 0.0000000e+00 
6.2733333e+00 6.0300000e+00 0.0000000e+00 
6.3000000e+00 5.9700000e+00 0.0000000e+00 
6.3000000e+00 5.9900000e+00 0.0000000e+00 
6.3000000e+00 6.0100000e+00 0.0000000e+00 
6.3000000e+00 6.0300000e+00 0.0000000e+00 
6.3266667e+00 5.9700000e+00 0.0000000e+00 
6.3266667e+00 5.9900000e+00 0.0000000e+00 
6.3266667e+00 6.0100000e+00 0.0000000e+00 
6.3266667e+00 6.0300000e+00 0.0000000e+00 
6.3533333e+00 5.9700000e+00 0.0000000e+00 
6.3533333e+00 5.9900000e+00 0.0000000e+00 
6.3533333e+00 6.0100000e+00 0.0000000e+00 
6.3533333e+00 6.0300000e+00 0.0000000e+00 
6.3800000e+00 5.9700000e+00 0.0000000e+00 
6.3800000e+00 5.9900000e+00 0.0000000e+00 
6.3800000e+00 6.0100000e+00 0.0000000e+00 
6.3800000e+00 6.0300000e+00 0.0000000e+00 
6.4066667e+00 5.9700000e+00 0.0000000e+00 
6.4066667e+00 5.9900000e+00 0.0000000e+00 
6.4066667e+00 6.0100000e+00 0.0000000e+00 
6.4066667e+00 6.0300000e+00 0.0000000e+00 
6.4333333e+00 5.9700000e+00 0.0000000e+00 
6.4333333e+00 5.9900000e+00 0.0000000e+00 
6.4333333e+00 6.0100000e+00 0.0000000e+00 
6.4333333e+00 6.0300000e+00 0.0000000e+00 
6.4600000e+00 5.9700000e+00 0.0000000e+00 
6.4600000e+00 5.9900000e+00 0.0000000e+00 
6.4600000e+00 6.0100000e+00 0.0000000e+00 
6.4600000e+00 6.0300000e+00 0.0000000e+00 
6.4866667e+00 5.9700000e+00 0.0000000e+00 
6.4866667e+00 5.9900000e+00 0.0000000e+00 
6.4866667e+00 6.0100000e+00 0.0000000e+00 
6.4866667e+00 6.0300000e+00 0.0000000e+00 
6.5133333e+00 5.9700000e+00 0.0000000e+00 
6.5133333e+00 5.9900000e+00 0.0000000e+00 
6.5133333e+00 6.0100000e+00 0.0000000e+00 
6.5133333e+00 6.0300000e+00 0.0000000e+00 
6.5400000e+00 5.9700000e+00 0.0000000e+00 
6.5400000e+00 5.9900000e+00 0.0000000e+00 
6.5400000e+00 6.0100000e+00 0.0000000e+00 
6.5400000e+00 6.0300000e+00 0.0000000e+00 
6.5666667e+00 5.9700000e+00 0.0000000e+00 
6.5666667e+00 5.9900000e+00 0.0000000e+00 
6.5666667e+00 6.0100000e+00 0.0000000e+00 
6.5666667e+00 6.0300000e+00 0.0000000e+00 
6.5933333e+00 5.9700000e+00 0.0000000e+00 
6.5933333e+00 5.9900000e+00 0.0000000e+00 
6.5933333e+00 6.0100000e+00 0.0000000e+00 
6.5933333e+00 6.0300000e+00 0.0000000e+00 
6.6200000e+00 5.9700000e+00 0.0000000e+00 
6.6200000e+00 5.9900000e+00 0.0000000e+00 
6.6200000e+00 6.0100000e+00 0.0000000e+00 
6.6200000e+00 6.0300000e+00 0.0000000e+00 
6.6466667e+00 5.9700000e+00 0.0000000e+00 
6.6466667e+00 5.9900000e+00 0.0000000e+00 
6.6466667e+00 6.0100000e+00 0.0000000e+00 
6.6466667e+00 6.0300000e+00 0.0000000e+00 
6.6733333e+00 5.9700000e+00 0.0000000e+00 
6.6733333e+00 5.9900000e+00 0.0000000e+00 
6.6733333e+00 6.0100000e+00 0.0000000e+00 
6.6733333e+00 6.0300000e+00 0.0000000e+00 
6.7000000e+00 5.9700000e+00 0.0000000e+00 
6.7000000e+00 5.9900000e+00 0.0000000e+00 
6.7000000e+00 6.0100000e+00 0.0000000e+00 
6.7000000e+00 6.0300000e+00 0.0000000e+00 
6.7266667e+00 5.9700000e+00 0.0000000e+00 
6.7266667e+00 5.9900000e+00 0.0000000e+00 
6.7266667e+00 6.0100000e+00 0.0000000e+00 
6.7266667e+00 6.0300000e+00 0.0000000e+00 
6.7533333e+00 5.9700000e+00 0.0000000e+00 
6.7533333e+00 5.9900000e+00 0.0000000e+00 
6.7533333e+00 6.0100000e+00 0.0000000e+00 
6.7533333e+00 6.0300000e+00 0.0000000e+00 
6.7800000e+00 5.9700000e+00 0.0000000e+00 
6.7800000e+00 5.9900000e+00 0.0000000e+00 
6.7800000e+00 6.0100000e+00 0.0000000e+00 
6.7800000e+00 6.0300000e+00 0.0000000e+00 
6.8066667e+00 5.9700000e+00 0.0000000e+00 
6.8066667e+00 5.9900000e+00 0.0000000e+00 
6.8066667e+00 6.0100000e+00 0.0000000e+00 
6.8066667e+00 6.0300000e+00 0.0000000e+00 
6.8333333e+00 5.9700000e+00 0.0000000e+00 
6.8333333e+00 5.9900000e+00 0.0000000e+00 
6.8333333e+00 6.0100000e+00 0.0000000e+00 
6.8333333e+00 6.0300000e+00 0.0000000e+00 
6.8600000e+00 5.9700000e+00 0.0000000e+00 
6.8600000e+00 5.9900000e+00 0.0000000e+00 
6.8600000e+00 6.0100000e+00 0.0000000e+00 
6.8600000e+00 6.0300000e+00 0.0000000e+00 
6.8866667e+00 5.9700000e+00 0.0000000e+00 
6.8866667e+00 5.9900000e+00 0.0000000e+00 
6.8866667e+00 6.0100000e+00 0.0000000e+00 
6.8866667e+00 6.0300000e+00 0.0000000e+00 
6.9133333e+00 5.9700000e+00 0.0000000e+00 
6.9133333e+00 5.9900000e+00 0.0000000e+00 
6.9133333e+00 6.0100000e+00 0.0000000e+00 
6.9133333e+00 6.0300000e+00 0.0000000e+00 
6.9400000e+00 5.9700000e+00 0.0000000e+00 
6.9400000e+00 5.9900000e+00 0.0000000e+00 
6.9400000e+00 6.0100000e+00 0.0000000e+00 
6.9400000e+00 6.0300000e+00 0.0000000e+00 
6.9666667e+00 5.9700000e+00 0.0000000e+00 
6.9666667e+00 5.9900000e+00 0.0000000e+00 
6.9666667e+00 6.0100000e+00 0.0000000e+00 
6.9666667e+00 6.0300000e+00 0.0000000e+00 
6.9933333e+00 5.9700000e+00 0.0000000e+00 
6.9933333e+00 5.9900000e+00 0.0000000e+00 
6.9933333e+00 6.0100000e+00 0.0000000e+00 
6.9933333e+00 6.0300000e+00 0.0000000e+00 
7.0200000e+00 5.9700000e+00 0.0000000e+00 
7.0200000e+00 5.9900000e+00 0.0000000e+00 
[...]
POINT_DATA 604
FIELD FieldData 2
DISPLACEMENT 3 604  float
0.0000000e+00 0.0000000e+00 0.0000000e+00 
0.0000000e+00 0.0000000e+00 0.0000000e+00 
-2.7229820e-07 -1.6610343e-07 0.0000000e+00 
-8.9041433e-08 -1.0785477e-07 0.0000000e+00 
0.0000000e+00 0.0000000e+00 0.0000000e+00 
8.3206349e-08 -1.0821906e-07 0.0000000e+00 
-5.4853330e-07 -5.1561690e-07 0.0000000e+00 
-1.8444036e-07 -4.7810661e-07 0.0000000e+00 
0.0000000e+00 0.0000000e+00 0.0000000e+00 
2.7091324e-07 -1.6381174e-07 0.0000000e+00 
1.7932048e-07 -4.8445397e-07 0.0000000e+00 
-8.1887285e-07 -1.1410252e-06 0.0000000e+00 
5.4418356e-07 -5.4034364e-07 0.0000000e+00 
-2.7381030e-07 -1.0922379e-06 0.0000000e+00 
2.6844492e-07 -1.0937477e-06 0.0000000e+00 
8.1328719e-07 -1.1385088e-06 0.0000000e+00 
-1.0831012e-06 -1.9759375e-06 0.0000000e+00 
-3.6222864e-07 -1.9394153e-06 0.0000000e+00 
3.5613683e-07 -1.9450893e-06 0.0000000e+00 
1.0768794e-06 -1.9999999e-06 0.0000000e+00 
-1.3415092e-06 -3.0697472e-06 0.0000000e+00 
-4.4895024e-07 -3.0231119e-06 0.0000000e+00 
4.4164082e-07 -3.0239193e-06 0.0000000e+00 
1.3351583e-06 -3.0667157e-06 0.0000000e+00 
-1.5935577e-06 -4.3636085e-06 0.0000000e+00 
-5.3423335e-07 -4.3282401e-06 0.0000000e+00 
5.2489139e-07 -4.3356156e-06 0.0000000e+00 
1.5886881e-06 -4.3878043e-06 0.0000000e+00 
-1.8421221e-06 -5.8933414e-06 0.0000000e+00 
-6.1363085e-07 -5.8588276e-06 0.0000000e+00 
6.1038310e-07 -5.8661877e-06 0.0000000e+00 
1.8346859e-06 -5.9173192e-06 0.0000000e+00 
-2.0835225e-06 -7.6537479e-06 0.0000000e+00 
-6.9537894e-07 -7.6100072e-06 0.0000000e+00 
6.8987856e-07 -7.6107769e-06 0.0000000e+00 
2.0769941e-06 -7.6507242e-06 0.0000000e+00 
-2.3202037e-06 -9.6000747e-06 0.0000000e+00 
-7.7509939e-07 -9.5680834e-06 0.0000000e+00 
7.6781948e-07 -9.5735957e-06 0.0000000e+00 
2.3132575e-06 -9.6234951e-06 0.0000000e+00 
-2.5521792e-06 -1.1780341e-05 0.0000000e+00 
-8.5282713e-07 -1.1738317e-05 0.0000000e+00 
8.4419550e-07 -1.1739757e-05 0.0000000e+00 
2.5435514e-06 -1.1777683e-05 0.0000000e+00 
-2.7787301e-06 -1.4137732e-05 0.0000000e+00 
-9.2890124e-07 -1.4107575e-05 0.0000000e+00 
9.1869566e-07 -1.4113038e-05 0.0000000e+00 
2.7686866e-06 -1.4161069e-05 0.0000000e+00 
-3.0002484e-06 -1.6719381e-05 0.0000000e+00 
-1.0032599e-06 -1.6679204e-05 0.0000000e+00 
9.9141503e-07 -1.6680628e-05 0.0000000e+00 
2.9883580e-06 -1.6716728e-05 0.0000000e+00 
-3.2164910e-06 -1.9469014e-05 0.0000000e+00 
-1.0759937e-06 -1.9440573e-05 0.0000000e+00 
1.0622899e-06 -1.9445964e-05 0.0000000e+00 
3.2029056e-06 -1.9492071e-05 0.0000000e+00 
-3.4277617e-06 -2.2433346e-05 0.0000000e+00 
-1.1470325e-06 -2.2395004e-05 0.0000000e+00 
1.1314256e-06 -2.2396422e-05 0.0000000e+00 
3.4121116e-06 -2.2430748e-05 0.0000000e+00 
-3.6338834e-06 -2.5556800e-05 0.0000000e+00 
-1.2164558e-06 -2.5530064e-05 0.0000000e+00 
1.1987688e-06 -2.5535410e-05 0.0000000e+00 
3.6162540e-06 -2.5579647e-05 0.0000000e+00 
-3.8350603e-06 -2.8885591e-05 0.0000000e+00 
-1.2842131e-06 -2.8849059e-05 0.0000000e+00 
1.2644065e-06 -2.8850482e-05 0.0000000e+00 
3.8152141e-06 -2.8883075e-05 0.0000000e+00 
-4.0312239e-06 -3.2364752e-05 0.0000000e+00 
-1.3503567e-06 -3.2339720e-05 0.0000000e+00 
1.3283115e-06 -3.2345050e-05 0.0000000e+00 
4.0091627e-06 -3.2387480e-05 0.0000000e+00 
-4.2224681e-06 -3.6040111e-05 0.0000000e+00 
-1.4148533e-06 -3.6005375e-05 0.0000000e+00 
1.3905547e-06 -3.6006819e-05 0.0000000e+00 
4.1980900e-06 -3.6037730e-05 0.0000000e+00 
-4.4088714e-06 -3.9857311e-05 0.0000000e+00 
-1.4777400e-06 -3.9833901e-05 0.0000000e+00 
1.4511218e-06 -3.9839215e-05 0.0000000e+00 
4.3820163e-06 -3.9879818e-05 0.0000000e+00 
-4.5899840e-06 -4.3861768e-05 0.0000000e+00 
-1.5392350e-06 -4.3828948e-05 0.0000000e+00 
1.5098328e-06 -4.3829787e-05 0.0000000e+00 
4.5614743e-06 -4.3859203e-05 0.0000000e+00 
-4.7656509e-06 -4.7999138e-05 0.0000000e+00 
-1.5994271e-06 -4.7976751e-05 0.0000000e+00 
1.5666129e-06 -4.7983765e-05 0.0000000e+00 
4.7367106e-06 -4.8021994e-05 0.0000000e+00 
-4.9382381e-06 -5.2302898e-05 0.0000000e+00 
-1.6541678e-06 -5.2281385e-05 0.0000000e+00 
1.6256793e-06 -5.2288399e-05 0.0000000e+00 
4.9054404e-06 -5.2325834e-05 0.0000000e+00 
-5.1041678e-06 -5.6768810e-05 0.0000000e+00 
-1.7111536e-06 -5.6738578e-05 0.0000000e+00 
1.6793309e-06 -5.6739513e-05 0.0000000e+00 
5.0714038e-06 -5.6766526e-05 0.0000000e+00 
-5.2663073e-06 -6.1354951e-05 0.0000000e+00 
-1.7661842e-06 -6.1335869e-05 0.0000000e+00 
1.7318265e-06 -6.1341346e-05 0.0000000e+00 
5.2318081e-06 -6.1377950e-05 0.0000000e+00 
-5.4239146e-06 -6.6107278e-05 0.0000000e+00 
-1.8194492e-06 -6.6078573e-05 0.0000000e+00 
1.7829998e-06 -6.6080228e-05 0.0000000e+00 
5.3874832e-06 -6.6105525e-05 0.0000000e+00 
-5.5770830e-06 -7.0971815e-05 0.0000000e+00 
-1.8710846e-06 -7.0954560e-05 0.0000000e+00 
1.8327364e-06 -7.0960166e-05 0.0000000e+00 
5.5383977e-06 -7.0995380e-05 0.0000000e+00 
-5.7253642e-06 -7.5994574e-05 0.0000000e+00 
-1.9212048e-06 -7.5967516e-05 0.0000000e+00 
1.8809503e-06 -7.5969259e-05 0.0000000e+00 
5.6850883e-06 -7.5993011e-05 0.0000000e+00 
-5.8693414e-06 -8.1121131e-05 0.0000000e+00 
-1.9697043e-06 -8.1105614e-05 0.0000000e+00 
1.9277675e-06 -8.1111338e-05 0.0000000e+00 
5.8270273e-06 -8.1145122e-05 0.0000000e+00 
-6.0084698e-06 -8.6398088e-05 0.0000000e+00 
-2.0167012e-06 -8.6372666e-05 0.0000000e+00 
1.9730972e-06 -8.6374505e-05 0.0000000e+00 
5.9648501e-06 -8.6396752e-05 0.0000000e+00 
-6.1433874e-06 -9.1770636e-05 0.0000000e+00 
-2.0620827e-06 -9.1756849e-05 0.0000000e+00 
2.0170729e-06 -9.1762714e-05 0.0000000e+00 
6.0979700e-06 -9.1795113e-05 0.0000000e+00 
-6.2734899e-06 -9.7285923e-05 0.0000000e+00 
-2.1059835e-06 -9.7262114e-05 0.0000000e+00 
2.0595866e-06 -9.7264055e-05 0.0000000e+00 
6.2270828e-06 -9.7284824e-05 0.0000000e+00 
-6.3994696e-06 -1.0288868e-04 0.0000000e+00 
-2.1482769e-06 -1.0287661e-04 0.0000000e+00 
2.1007855e-06 -1.0288263e-04 0.0000000e+00 
6.3515457e-06 -1.0291369e-04 0.0000000e+00 
-6.5206886e-06 -1.0862666e-04 0.0000000e+00 
-2.1891019e-06 -1.0860446e-04 0.0000000e+00 
2.1405571e-06 -1.0860650e-04 0.0000000e+00 
6.4720890e-06 -1.0862583e-04 0.0000000e+00 
-6.6379048e-06 -1.1444423e-04 0.0000000e+00 
-2.2283396e-06 -1.1443377e-04 0.0000000e+00 
2.1790408e-06 -1.1443993e-04 0.0000000e+00 
6.5880027e-06 -1.1446957e-04 0.0000000e+00 
-6.7499999e-06 -1.2038961e-04 0.0000000e+00 
-2.2663789e-06 -1.2036914e-04 0.0000000e+00 
2.2158751e-06 -1.2037060e-04 0.0000000e+00 
6.7004984e-06 -1.2038868e-04 0.0000000e+00 
-6.8573863e-06 -1.2640625e-04 0.0000000e+00 
-2.3031722e-06 -1.2639674e-04 0.0000000e+00 
2.2511203e-06 -1.2640488e-04 0.0000000e+00 
6.8092110e-06 -1.2643249e-04 0.0000000e+00 
-6.9621432e-06 -1.3253034e-04 0.0000000e+00 
-2.3343513e-06 -1.3252176e-04 0.0000000e+00 
2.2892059e-06 -1.3252993e-04 0.0000000e+00 
6.9121523e-06 -1.3255702e-04 0.0000000e+00 
-7.0605035e-06 -1.3875862e-04 0.0000000e+00 
-2.3681718e-06 -1.3874044e-04 0.0000000e+00 
2.3218704e-06 -1.3874212e-04 0.0000000e+00 
7.0132358e-06 -1.3875811e-04 0.0000000e+00 
-7.1558282e-06 -1.4504637e-04 0.0000000e+00 
-2.4000886e-06 -1.4504020e-04 0.0000000e+00 
2.3537130e-06 -1.4504684e-04 0.0000000e+00 
7.1091502e-06 -1.4507348e-04 0.0000000e+00 
-7.2470109e-06 -1.5144451e-04 0.0000000e+00 
-2.4304023e-06 -1.5142765e-04 0.0000000e+00 
2.3844537e-06 -1.5143013e-04 0.0000000e+00 
7.2011051e-06 -1.5144459e-04 0.0000000e+00 
-7.3344061e-06 -1.5789487e-04 0.0000000e+00 
-2.4591954e-06 -1.5789042e-04 0.0000000e+00 
2.4140325e-06 -1.5789726e-04 0.0000000e+00 
7.2887870e-06 -1.5792281e-04 0.0000000e+00 
-7.4173394e-06 -1.6444890e-04 0.0000000e+00 
-2.4866528e-06 -1.6443348e-04 0.0000000e+00 
2.4422912e-06 -1.6443607e-04 0.0000000e+00 
7.3729763e-06 -1.6444918e-04 0.0000000e+00 
-7.4965932e-06 -1.7104755e-04 0.0000000e+00 
-2.5126209e-06 -1.7104470e-04 0.0000000e+00 
2.4694066e-06 -1.7105170e-04 0.0000000e+00 
7.4529310e-06 -1.7107609e-04 0.0000000e+00 
-7.5714809e-06 -1.7774324e-04 0.0000000e+00 
-2.5372688e-06 -1.7772924e-04 0.0000000e+00 
2.4952364e-06 -1.7773193e-04 0.0000000e+00 
7.5294507e-06 -1.7774374e-04 0.0000000e+00 
-7.6427605e-06 -1.8447622e-04 0.0000000e+00 
-2.5604547e-06 -1.8447494e-04 0.0000000e+00 
2.5199481e-06 -1.8448210e-04 0.0000000e+00 
7.6018185e-06 -1.8450535e-04 0.0000000e+00 
-7.7097639e-06 -1.9129973e-04 0.0000000e+00 
-2.5823472e-06 -1.9128712e-04 0.0000000e+00 
2.5434009e-06 -1.9128992e-04 0.0000000e+00 
7.6708236e-06 -1.9130043e-04 0.0000000e+00 
-7.7732357e-06 -1.9815335e-04 0.0000000e+00 
-2.6028075e-06 -1.9815360e-04 0.0000000e+00 
2.5657618e-06 -1.9816093e-04 0.0000000e+00 
7.7357661e-06 -1.9818306e-04 0.0000000e+00 
-7.8325435e-06 -2.0509112e-04 0.0000000e+00 
-2.6219928e-06 -2.0507989e-04 0.0000000e+00 
2.5869031e-06 -2.0508279e-04 0.0000000e+00 
7.7974079e-06 -2.0509206e-04 0.0000000e+00 
-7.8884434e-06 -2.1205214e-04 0.0000000e+00 
-2.6397883e-06 -2.1205377e-04 0.0000000e+00 
2.6069704e-06 -2.1206122e-04 0.0000000e+00 
7.8550439e-06 -2.1208216e-04 0.0000000e+00 
-7.9398331e-06 -2.1909100e-04 0.0000000e+00 
-2.6566151e-06 -2.1908130e-04 0.0000000e+00 
2.6255761e-06 -2.1908352e-04 0.0000000e+00 
7.9099136e-06 -2.1909175e-04 0.0000000e+00 
-7.9870291e-06 -2.2614587e-04 0.0000000e+00 
-2.6724544e-06 -2.2614811e-04 0.0000000e+00 
2.6427603e-06 -2.2615772e-04 0.0000000e+00 
7.9617620e-06 -2.2617675e-04 0.0000000e+00 
-8.0325005e-06 -2.3325791e-04 0.0000000e+00 
-2.6824607e-06 -2.3326094e-04 0.0000000e+00 
2.6634624e-06 -2.3327058e-04 0.0000000e+00 
8.0082611e-06 -2.3328918e-04 0.0000000e+00 
-8.0721236e-06 -2.4042444e-04 0.0000000e+00 
-2.6957958e-06 -2.4041663e-04 0.0000000e+00 
2.6785104e-06 -2.4041903e-04 0.0000000e+00 
8.0537675e-06 -2.4042549e-04 0.0000000e+00 
-8.1094639e-06 -2.4759705e-04 0.0000000e+00 
-2.7074572e-06 -2.4760226e-04 0.0000000e+00 
2.6929982e-06 -2.4761014e-04 0.0000000e+00 
8.0948085e-06 -2.4762859e-04 0.0000000e+00 
-8.1435437e-06 -2.5483301e-04 0.0000000e+00 
-2.7177379e-06 -2.5482621e-04 0.0000000e+00 
2.7066662e-06 -2.5482945e-04 0.0000000e+00 
8.1325248e-06 -2.5483462e-04 0.0000000e+00 
-8.1745564e-06 -2.6206925e-04 0.0000000e+00 
-2.7267841e-06 -2.6207588e-04 0.0000000e+00 
2.7194108e-06 -2.6208390e-04 0.0000000e+00 
8.1668195e-06 -2.6210151e-04 0.0000000e+00 
-8.2020053e-06 -2.6936346e-04 0.0000000e+00 
-2.7347641e-06 -2.6935779e-04 0.0000000e+00 
2.7311109e-06 -2.6936111e-04 0.0000000e+00 
8.1983542e-06 -2.6936518e-04 0.0000000e+00 
-8.2265635e-06 -2.7665185e-04 0.0000000e+00 
-2.7415629e-06 -2.7665973e-04 0.0000000e+00 
2.7419244e-06 -2.7666788e-04 0.0000000e+00 
8.2265670e-06 -2.7668457e-04 0.0000000e+00 
-8.2477151e-06 -2.8399302e-04 0.0000000e+00 
-2.7473319e-06 -2.8398844e-04 0.0000000e+00 
2.7517517e-06 -2.8399184e-04 0.0000000e+00 
8.2521411e-06 -2.8399488e-04 0.0000000e+00 
-8.2661196e-06 -2.9132268e-04 0.0000000e+00 
-2.7519662e-06 -2.9133175e-04 0.0000000e+00 
2.7607414e-06 -2.9134002e-04 0.0000000e+00 
8.2745424e-06 -2.9135585e-04 0.0000000e+00 
-8.2812649e-06 -2.9870015e-04 0.0000000e+00 
-2.7556204e-06 -2.9869662e-04 0.0000000e+00 
2.7687947e-06 -2.9870009e-04 0.0000000e+00 
8.2944506e-06 -2.9870216e-04 0.0000000e+00 
-8.2938146e-06 -3.0606070e-04 0.0000000e+00 
-2.7581871e-06 -3.0607091e-04 0.0000000e+00 
2.7760628e-06 -3.0607931e-04 0.0000000e+00 
8.3113403e-06 -3.0609432e-04 0.0000000e+00 
-8.3032725e-06 -3.1346437e-04 0.0000000e+00 
-2.7598139e-06 -3.1346184e-04 0.0000000e+00 
2.7824579e-06 -3.1346538e-04 0.0000000e+00 
8.3258739e-06 -3.1346653e-04 0.0000000e+00 
-8.3103360e-06 -3.2084610e-04 0.0000000e+00 
-2.7604117e-06 -3.2085729e-04 0.0000000e+00 
2.7881118e-06 -3.2086579e-04 0.0000000e+00 
8.3375030e-06 -3.2087992e-04 0.0000000e+00 
-8.3139709e-06 -3.2826651e-04 0.0000000e+00 
-2.7604219e-06 -3.2826511e-04 0.0000000e+00 
2.7926481e-06 -3.2826789e-04 0.0000000e+00 
8.3474237e-06 -3.2826838e-04 0.0000000e+00 
-8.3144116e-06 -3.3565961e-04 0.0000000e+00 
-2.7598528e-06 -3.3567094e-04 0.0000000e+00 
2.7960833e-06 -3.3568173e-04 0.0000000e+00 
8.3555612e-06 -3.3569424e-04 0.0000000e+00 
-8.3144702e-06 -3.4307141e-04 0.0000000e+00 
-2.7534308e-06 -3.4308334e-04 0.0000000e+00 
2.8038301e-06 -3.4309415e-04 0.0000000e+00 
8.3592587e-06 -3.4310644e-04 0.0000000e+00 
-8.3096845e-06 -3.5050034e-04 0.0000000e+00 
-2.7511294e-06 -3.5050019e-04 0.0000000e+00 
2.8058999e-06 -3.5050311e-04 0.0000000e+00 
8.3633067e-06 -3.5050241e-04 0.0000000e+00 
-8.3038662e-06 -3.5789503e-04 0.0000000e+00 
-2.7475177e-06 -3.5790879e-04 0.0000000e+00 
2.8078445e-06 -3.5791766e-04 0.0000000e+00 
8.3640638e-06 -3.5793029e-04 0.0000000e+00 
-8.2960590e-06 -3.6531919e-04 0.0000000e+00 
-2.7429085e-06 -3.6531958e-04 0.0000000e+00 
2.8094019e-06 -3.6532340e-04 0.0000000e+00 
8.3626364e-06 -3.6532178e-04 0.0000000e+00 
-8.2863831e-06 -3.7270543e-04 0.0000000e+00 
-2.7374633e-06 -3.7272020e-04 0.0000000e+00 
2.8104478e-06 -3.7272923e-04 0.0000000e+00 
8.3590625e-06 -3.7274146e-04 0.0000000e+00 
-8.2743963e-06 -3.8011805e-04 0.0000000e+00 
-2.7313675e-06 -3.8011912e-04 0.0000000e+00 
2.8108612e-06 -3.8012300e-04 0.0000000e+00 
8.3539245e-06 -3.8012070e-04 0.0000000e+00 
-8.2607258e-06 -3.8748873e-04 0.0000000e+00 
-2.7244932e-06 -3.8750435e-04 0.0000000e+00 
2.8108031e-06 -3.8751351e-04 0.0000000e+00 
8.3467487e-06 -3.8752528e-04 0.0000000e+00 
-8.2449171e-06 -3.9488294e-04 0.0000000e+00 
-2.7170073e-06 -3.9488464e-04 0.0000000e+00 
2.8101694e-06 -3.9488858e-04 0.0000000e+00 
8.3381236e-06 -3.9488566e-04 0.0000000e+00 
-8.2275551e-06 -4.0223156e-04 0.0000000e+00 
-2.7087915e-06 -4.0224798e-04 0.0000000e+00 
2.8091096e-06 -4.0225728e-04 0.0000000e+00 
8.3276116e-06 -4.0226864e-04 0.0000000e+00 
-8.2082122e-06 -4.0960112e-04 0.0000000e+00 
-2.7000134e-06 -4.0960340e-04 0.0000000e+00 
2.8075168e-06 -4.0960741e-04 0.0000000e+00 
8.3157703e-06 -4.0960391e-04 0.0000000e+00 
-8.1874379e-06 -4.1692169e-04 0.0000000e+00 
-2.6905543e-06 -4.1693886e-04 0.0000000e+00 
2.8055398e-06 -4.1694830e-04 0.0000000e+00 
8.3021902e-06 -4.1695931e-04 0.0000000e+00 
-8.1648589e-06 -4.2426084e-04 0.0000000e+00 
-2.6805681e-06 -4.2426366e-04 0.0000000e+00 
2.8030832e-06 -4.2426773e-04 0.0000000e+00 
8.2873718e-06 -4.2426372e-04 0.0000000e+00 
-8.1410133e-06 -4.3154799e-04 0.0000000e+00 
-2.6699623e-06 -4.3156574e-04 0.0000000e+00 
2.8002686e-06 -4.3157528e-04 0.0000000e+00 
8.2709117e-06 -4.3158584e-04 0.0000000e+00 
-8.1149794e-06 -4.3885155e-04 0.0000000e+00 
-2.6592087e-06 -4.3885508e-04 0.0000000e+00 
2.7966830e-06 -4.3885827e-04 0.0000000e+00 
8.2538554e-06 -4.3885399e-04 0.0000000e+00 
-8.0867082e-06 -4.4609964e-04 0.0000000e+00 
-2.6483453e-06 -4.4611704e-04 0.0000000e+00 
2.7923019e-06 -4.4612910e-04 0.0000000e+00 
8.2363851e-06 -4.4613837e-04 0.0000000e+00 
-8.0595636e-06 -4.5334455e-04 0.0000000e+00 
-2.6314893e-06 -4.5336237e-04 0.0000000e+00 
2.7931307e-06 -4.5337450e-04 0.0000000e+00 
8.2152573e-06 -4.5338376e-04 0.0000000e+00 
-8.0285952e-06 -4.6058592e-04 0.0000000e+00 
-2.6197213e-06 -4.6059004e-04 0.0000000e+00 
2.7880697e-06 -4.6059334e-04 0.0000000e+00 
8.1957056e-06 -4.6058840e-04 0.0000000e+00 
-7.9976595e-06 -4.6776768e-04 0.0000000e+00 
-2.6070307e-06 -4.6778704e-04 0.0000000e+00 
2.7832344e-06 -4.6779696e-04 0.0000000e+00 
8.1740123e-06 -4.6780705e-04 0.0000000e+00 
-7.9661239e-06 -4.7496201e-04 0.0000000e+00 
-2.5937011e-06 -4.7496622e-04 0.0000000e+00 
2.7783838e-06 -4.7497049e-04 0.0000000e+00 
8.1509404e-06 -4.7496494e-04 0.0000000e+00 
-7.9336427e-06 -4.8209500e-04 0.0000000e+00 
-2.5799742e-06 -4.8211497e-04 0.0000000e+00 
2.7733089e-06 -4.8212503e-04 0.0000000e+00 
8.1269681e-06 -4.8213509e-04 0.0000000e+00 
-7.9002099e-06 -4.8923944e-04 0.0000000e+00 
-2.5659845e-06 -4.8924391e-04 0.0000000e+00 
2.7679315e-06 -4.8924820e-04 0.0000000e+00 
8.1022305e-06 -4.8924230e-04 0.0000000e+00 
-7.8659866e-06 -4.9632040e-04 0.0000000e+00 
-2.5516705e-06 -4.9634080e-04 0.0000000e+00 
2.7623453e-06 -4.9635093e-04 0.0000000e+00 
8.0767039e-06 -4.9636087e-04 0.0000000e+00 
-7.8310178e-06 -5.0341184e-04 0.0000000e+00 
-2.5371308e-06 -5.0341652e-04 0.0000000e+00 
2.7565094e-06 -5.0342083e-04 0.0000000e+00 
8.0504743e-06 -5.0341465e-04 0.0000000e+00 
-7.7953663e-06 -5.1043811e-04 0.0000000e+00 
-2.5223319e-06 -5.1045886e-04 0.0000000e+00 
2.7504904e-06 -5.1046907e-04 0.0000000e+00 
8.0236224e-06 -5.1047891e-04 0.0000000e+00 
-7.7591630e-06 -5.1747408e-04 0.0000000e+00 
-2.5073588e-06 -5.1747893e-04 0.0000000e+00 
2.7442628e-06 -5.1748324e-04 0.0000000e+00 
7.9961490e-06 -5.1747681e-04 0.0000000e+00 
-7.7223882e-06 -5.2444346e-04 0.0000000e+00 
-2.4921933e-06 -5.2446450e-04 0.0000000e+00 
2.7378782e-06 -5.2447478e-04 0.0000000e+00 
7.9682241e-06 -5.2448454e-04 0.0000000e+00 
-7.6852788e-06 -5.3142197e-04 0.0000000e+00 
-2.4768921e-06 -5.3142695e-04 0.0000000e+00 
2.7313415e-06 -5.3143127e-04 0.0000000e+00 
7.9397419e-06 -5.3142466e-04 0.0000000e+00 
-7.6477671e-06 -5.3833298e-04 0.0000000e+00 
-2.4614780e-06 -5.3835409e-04 0.0000000e+00 
2.7246623e-06 -5.3836437e-04 0.0000000e+00 
7.9109267e-06 -5.3837395e-04 0.0000000e+00 
-7.6095373e-06 -5.4525267e-04 0.0000000e+00 
-2.4463396e-06 -5.4525795e-04 0.0000000e+00 
2.7175182e-06 -5.4526125e-04 0.0000000e+00 
7.8822224e-06 -5.4525474e-04 0.0000000e+00 
-7.5698330e-06 -5.5210352e-04 0.0000000e+00 
-2.4316691e-06 -5.5212368e-04 0.0000000e+00 
2.7097309e-06 -5.5213652e-04 0.0000000e+00 
7.8545499e-06 -5.5214496e-04 0.0000000e+00 
-7.5329056e-06 -5.5894374e-04 0.0000000e+00 
-2.4110214e-06 -5.5896396e-04 0.0000000e+00 
2.7078862e-06 -5.5897687e-04 0.0000000e+00 
7.8237805e-06 -5.5898535e-04 0.0000000e+00 
-7.4934060e-06 -5.6577362e-04 0.0000000e+00 
-2.3964052e-06 -5.6577884e-04 0.0000000e+00 
2.6999521e-06 -5.6578210e-04 0.0000000e+00 
7.7955860e-06 -5.6577545e-04 0.0000000e+00 
-7.4549026e-06 -5.7253400e-04 0.0000000e+00 
-2.3813933e-06 -5.7255529e-04 0.0000000e+00 
2.6924730e-06 -5.7256561e-04 0.0000000e+00 
7.7665723e-06 -5.7257523e-04 0.0000000e+00 
-7.4174429e-06 -5.7930339e-04 0.0000000e+00 
-2.3661295e-06 -5.7930825e-04 0.0000000e+00 
2.6853553e-06 -5.7931247e-04 0.0000000e+00 
7.7368062e-06 -5.7930556e-04 0.0000000e+00 
-7.3799360e-06 -5.8600395e-04 0.0000000e+00 
-2.3510230e-06 -5.8602530e-04 0.0000000e+00 
2.6782161e-06 -5.8603563e-04 0.0000000e+00 
7.7075417e-06 -5.8604546e-04 0.0000000e+00 
-7.3430701e-06 -5.9271413e-04 0.0000000e+00 
-2.3360704e-06 -5.9271880e-04 0.0000000e+00 
2.6711231e-06 -5.9272298e-04 0.0000000e+00 
7.6781905e-06 -5.9271609e-04 0.0000000e+00 
-7.3063153e-06 -5.9935568e-04 0.0000000e+00 
-2.3213488e-06 -5.9937689e-04 0.0000000e+00 
2.6640198e-06 -5.9938716e-04 0.0000000e+00 
7.6494419e-06 -5.9939708e-04 0.0000000e+00 
-7.2703927e-06 -6.0600758e-04 0.0000000e+00 
-2.3068132e-06 -6.0601204e-04 0.0000000e+00 
2.6570140e-06 -6.0601616e-04 0.0000000e+00 
7.6206630e-06 -6.0600935e-04 0.0000000e+00 
-7.2346781e-06 -6.1259152e-04 0.0000000e+00 
-2.2925661e-06 -6.1261251e-04 0.0000000e+00 
2.6500197e-06 -6.1262273e-04 0.0000000e+00 
7.5926300e-06 -6.1263276e-04 0.0000000e+00 
-7.1999547e-06 -6.1918668e-04 0.0000000e+00 
-2.2785473e-06 -6.1919090e-04 0.0000000e+00 
2.6431569e-06 -6.1919495e-04 0.0000000e+00 
7.5646356e-06 -6.1918826e-04 0.0000000e+00 
-7.1655268e-06 -6.2571480e-04 0.0000000e+00 
-2.2648698e-06 -6.2573552e-04 0.0000000e+00 
2.6363250e-06 -6.2574567e-04 0.0000000e+00 
7.5375180e-06 -6.2575584e-04 0.0000000e+00 
-7.1322541e-06 -6.3225515e-04 0.0000000e+00 
-2.2514448e-06 -6.3225910e-04 0.0000000e+00 
2.6296692e-06 -6.3226308e-04 0.0000000e+00 
7.5104799e-06 -6.3225656e-04 0.0000000e+00 
-7.0994104e-06 -6.3872980e-04 0.0000000e+00 
-2.2384194e-06 -6.3875005e-04 0.0000000e+00 
2.6230498e-06 -6.3876010e-04 0.0000000e+00 
7.4843791e-06 -6.3877026e-04 0.0000000e+00 
-7.0672681e-06 -6.4521777e-04 0.0000000e+00 
-2.2260392e-06 -6.4522164e-04 0.0000000e+00 
2.6162756e-06 -6.4522453e-04 0.0000000e+00 
7.4589911e-06 -6.4521844e-04 0.0000000e+00 
-7.0344092e-06 -6.5164085e-04 0.0000000e+00 
-2.2146313e-06 -6.5165964e-04 0.0000000e+00 
2.6090107e-06 -6.5167209e-04 0.0000000e+00 
7.4358540e-06 -6.5168130e-04 0.0000000e+00 