# vtk DataFile Version 4.0
vtk output
ASCII
DATASET UNSTRUCTURED_GRID
POINTS 604 float
5.5000000e+00 5.9700000e+00 0.0000000e+00 
5.5000000e+00 5.9900000e+00 0.0000000e+00 
5.5266667e+00 5.9700000e+00 0.0000000e+00 
5.5266667e+00 5.9900000e+00 0.0000000e+00 
5.5000000e+00 6.0100000e+00 0.0000000e+00 
5.5266667e+00 6.0100000e+00 0.0000000e+00 
5.5533333e+00 5.9700000e+00 0.0000000e+00 
5.5533333e+00 5.9900000e+00 0.0000000e+00 
5.5000000e+00 6.0300000e+00 0.0000000e+00 
5.5266667e+00 6.0300000e+00 0.0000000e+00 
5.5533333e+00 6.0100000e+00 0.0000000e+00 
5.5800000e+00 5.9700000e+00 0.0000000e+00 
5.5533333e+00 6.0300000e+00 0.0000000e+00 
5.5800000e+00 5.9900000e+00 0.0000000e+00 
5.5800000e+00 6.0100000e+00 0.0000000e+00 
5.5800000e+00 6.0300000e+00 0.0000000e+00 
5.6066667e+00 5.9700000e+00 0.0000000e+00 
5.6066667e+00 5.9900000e+00 0.0000000e+00 
5.6066667e+00 6.0100000e+00 0.0000000e+00 
5.6066667e+00 6.0300000e+00 0.0000000e+00 
5.6333333e+00 5.9700000e+00 0.0000000e+00 
5.6333333e+00 5.9900000e+00 0.0000000e+00 
5.6333333e+00 6.0100000e+00 0.0000000e+00 
5.6333333e+00 6.0300000e+00 0.0000000e+00 
5.6600000e+00 5.9700000e+00 0.0000000e+00 
5.6600000e+00 5.9900000e+00 0.0000000e+00 
5.6600000e+00 6.0100000e+00 0.0000000e+00 
5.6600000e+00 6.0300000e+00 0.0000000e+00 
5.6866667e+00 5.9700000e+00 0.0000000e+00 
5.6866667e+00 5.9900000e+00 0.0000000e+00 
5.6866667e+00 6.0100000e+00 0.0000000e+00 
5.6866667e+00 6.0300000e+00 0.0000000e+00 
5.7133333e+00 5.9700000e+00 0.0000000e+00 
5.7133333e+00 5.9900000e+00 0.0000000e+00 
5.7133333e+00 6.0100000e+00 0.0000000e+00 
5.7133333e+00 6.0300000e+00 0.0000000e+00 
5.7400000e+00 5.9700000e+00 0.0000000e+00 
5.7400000e+00 5.9900000e+00 0.0000000e+00 
5.7400000e+00 6.0100000e+00 0.0000000e+00 
5.7400000e+00 6.0300000e+00 0.0000000e+00 
5.7666667e+00 5.9700000e+00 0.0000000e+00 
5.7666667e+00 5.9900000e+00 0.0000000e+00 
5.7666667e+00 6.0100000e+00 0.0000000e+00 
5.7666667e+00 6.0300000e+00 0.0000000e+00 
5.7933333e+00 5.9700000e+00 0.0000000e+00 
5.7933333e+00 5.9900000e+00 0.0000000e+00 
5.7933333e+00 6.0100000e+00 0.0000000e+00 
5.7933333e+00 6.0300000e+00 0.0000000e+00 
5.8200000e+00 5.9700000e+00 0.0000000e+00 
5.8200000e+00 5.9900000e+00 0.0000000e+00 
5.8200000e+00 6.0100000e+00 0.0000000e+00 
5.8200000e+00 6.0300000e+00 0.0000000e+00 
5.8466667e+00 5.9700000e+00 0.0000000e+00 
5.8466667e+00 5.9900000e+00 0.0000000e+00 
5.8466667e+00 6.0100000e+00 0.0000000e+00 
5.8466667e+00 6.0300000e+00 0.0000000e+00 
5.8733333e+00 5.9700000e+00 0.0000000e+00 
5.8733333e+00 5.9900000e+00 0.0000000e+00 
5.8733333e+00 6.0100000e+00 0.0000000e+00 
5.8733333e+00 6.0300000e+00 0.0000000e+00 
5.9000000e+00 5.9700000e+00 0.0000000e+00 
5.9000000e+00 5.9900000e+00 0.0000000e+00 
5.9000000e+00 6.0100000e+00 0.0000000e+00 
5.9000000e+00 6.0300000e+00 0.0000000e+00 
5.9266667e+00 5.9700000e+00 0.0000000e+00 
5.9266667e+00 5.9900000e+00 0.0000000e+00 
5.9266667e+00 6.0100000e+00 0.0000000e+00 
5.9266667e+00 6.0300000e+00 0.0000000e+00 
5.9533333e+00 5.9700000e+00 0.0000000e+00 
5.9533333e+00 5.9900000e+00 0.0000000e+00 
5.9533333e+00 6.0100000e+00 0.0000000e+00 
5.9533333e+00 6.0300000e+00 0.0000000e+00 
5.9800000e+00 5.9700000e+00 0.0000000e+00 
5.9800000e+00 5.9900000e+00 0.0000000e+00 
5.9800000e+00 6.0100000e+00 0.0000000e+00 
5.9800000e+00 6.0300000e+00 0.0000000e+00 
6.0066667e+00 5.9700000e+00 0.0000000e+00 
6.0066667e+00 5.9900000e+00 0.0000000e+00 
6.0066667e+00 6.0100000e+00 0.0000000e+00 
6.0066667e+00 6.0300000e+00 0.0000000e+00 
6.0333333e+00 5.9700000e+00 0.0000000e+00 
6.0333333e+00 5.9900000e+00 0.0000000e+00 
6.0333333e+00 6.0100000e+00 0.0000000e+00 
6.0333333e+00 6.0300000e+00 0.0000000e+00 
6.0600000e+00 5.9700000e+00 0.0000000e+00 
6.0600000e+00 5.9900000e+00 0.0000000e+00 
6.0600000e+00 6.0100000e+00 0.0000000e+00 
6.0600000e+00 6.0300000e+00 0.0000000e+00 
6.0866667e+00 5.9700000e+00 0.0000000e+00 
6.0866667e+00 5.9900000e+00 0.0000000e+00 
6.0866667e+00 6.0100000e+00 0.0000000e+00 
6.0866667e+00 6.0300000e+00 0.0000000e+00 
6.1133333e+00 5.9700000e+00 0.0000000e+00 
6.1133333e+00 5.9900000e+00 0.0000000e+00 
6.1133333e+00 6.0100000e+00 0.0000000e+00 
6.1133333e+00 6.0300000e+00 0.0000000e+00 
6.1400000e+00 5.9700000e+00 0.0000000e+00 
6.1400000e+00 5.9900000e+00 0.0000000e+00 
6.1400000e+00 6.0100000e+00 0.0000000e+00 
6.1400000e+00 6.0300000e+00 0.0000000e+00 
6.1666667e+00 5.9700000e+00 0.0000000e+00 
6.1666667e+00 5.9900000e+00 0.0000000e+00 
6.1666667e+00 6.0100000e+00 0.0000000e+00 
6.1666667e+00 6.0300000e+00 0.0000000e+00 
6.1933333e+00 5.9700000e+00 0.0000000e+00 
6.1933333e+00 5.9900000e+00 0.0000000e+00 
6.1933333e+00 6.0100000e+00 0.0000000e+00 
6.1933333e+00 6.0300000e+00 0.0000000e+00 
6.2200000e+00 5.9700000e+00 0.0000000e+00 
6.2200000e+00 5.9900000e+00 0.0000000e+00 
6.2200000e+00 6.0100000e+00 0.0000000e+00 
6.2200000e+00 6.0300000e+00 0.0000000e+00 
6.2466667e+00 5.9700000e+00 0.0000000e+00 
6.2466667e+00 5.9900000e+00 0.0000000e+00 
6.2466667e+00 6.0100000e+00 0.0000000e+00 
6.2466667e+00 6.0300000e+00 0.0000000e+00 
6.2733333e+00 5.9700000e+00 0.0000000e+00 
6.2733333e+00 5.9900000e+00 0.0000000e+00 
6.2733333e+00 6.0100000e+00 0.0000000e+00 
6.2733333e+00 6.0300000e+00 0.0000000e+00 
6.3000000e+00 5.9700000e+00 0.0000000e+00 
6.3000000e+00 5.9900000e+00 0.0000000e+00 
6.3000000e+00 6.0100000e+00 0.0000000e+00 
6.3000000e+00 6.0300000e+00 0.0000000e+00 
6.3266667e+00 5.9700000e+00 0.0000000e+00 
6.3266667e+00 5.9900000e+00 0.0000000e+00 
6.3266667e+00 6.0100000e+00 0.0000000e+00 
6.3266667e+00 6.0300000e+00 0.0000000e+00 
6.3533333e+00 5.9700000e+00 0.0000000e+00 
6.3533333e+00 5.9900000e+00 0.0000000e+00 
6.3533333e+00 6.0100000e+00 0.0000000e+00 
6.3533333e+00 6.0300000e+00 0.0000000e+00 
6.3800000e+00 5.9700000e+00 0.0000000e+00 
6.3800000e+00 5.9900000e+00 0.0000000e+00 
6.3800000e+00 6.0100000e+00 0.0000000e+00 
6.3800000e+00 6.0300000e+00 0.0000000e+00 
6.4066667e+00 5.9700000e+00 0.0000000e+00 
6.4066667e+00 5.9900000e+00 0.0000000e+00 
6.4066667e+00 6.0100000e+00 0.0000000e+00 
6.4066667e+00 6.0300000e+00 0.0000000e+00 
6.4333333e+00 5.9700000e+00 0.0000000e+00 
6.4333333e+00 5.9900000e+00 0.0000000e+00 
6.4333333e+00 6.0100000e+00 0.0000000e+00 
6.4333333e+00 6.0300000e+00 0.0000000e+00 
6.4600000e+00 5.9700000e+00 0.0000000e+00 
6.4600000e+00 5.9900000e+00 0.0000000e+00 
6.4600000e+00 6.0100000e+00 0.0000000e+00 
6.4600000e+00 6.0300000e+00 0.0000000e+00 
6.4866667e+00 5.9700000e+00 0.0000000e+00 
6.4866667e+00 5.9900000e+00 0.0000000e+00 
6.4866667e+00 6.0100000e+00 0.0000000e+00 
6.4866667e+00 6.0300000e+00 0.0000000e+00 
6.5133333e+00 5.9700000e+00 0.0000000e+00 
6.5133333e+00 5.9900000e+00 0.0000000e+00 
6.5133333e+00 6.0100000e+00 0.0000000e+00 
6.5133333e+00 6.0300000e+00 0.0000000e+00 
6.5400000e+00 5.9700000e+00 0.0000000e+00 
6.5400000e+00 5.9900000e+00 0.0000000e+00 
6.5400000e+00 6.0100000e+00 0.0000000e+00 
6.5400000e+00 6.0300000e+00 0.0000000e+00 
6.5666667e+00 5.9700000e+00 0.0000000e+00 
6.5666667e+00 5.9900000e+00 0.0000000e+00 
6.5666667e+00 6.0100000e+00 0.0000000e+00 
6.5666667e+00 6.0300000e+00 0.0000000e+00 
6.5933333e+00 5.9700000e+00 0.0000000e+00 
6.5933333e+00 5.9900000e+00 0.0000000e+00 
6.5933333e+00 6.0100000e+00 0.0000000e+00 
6.5933333e+00 6.0300000e+00 0.0000000e+00 
6.6200000e+00 5.9700000e+00 0.0000000e+00 
6.6200000e+00 5.9900000e+00 0.0000000e+00 
6.6200000e+00 6.0100000e+00 0.0000000e+00 
6.6200000e+00 6.0300000e+00 0.0000000e+00 
6.6466667e+00 5.9700000e+00 0.0000000e+00 
6.6466667e+00 5.9900000e+00 0.0000000e+00 
6.6466667e+00 6.0100000e+00 0.0000000e+00 
6.6466667e+00 6.0300000e+00 0.0000000e+00 
6.6733333e+00 5.9700000e+00 0.0000000e+00 
6.6733333e+00 5.9900000e+00 0.0000000e+00 
6.6733333e+00 6.0100000e+00 0.0000000e+00 
6.6733333e+00 6.0300000e+00 0.0000000e+00 
6.7000000e+00 5.9700000e+00 0.0000000e+00 
6.7000000e+00 5.9900000e+00 0.0000000e+00 
6.7000000e+00 6.0100000e+00 0.0000000e+00 
6.7000000e+00 6.0300000e+00 0.0000000e+00 
6.7266667e+00 5.9700000e+00 0.0000000e+00 
6.7266667e+00 5.9900000e+00 0.0000000e+00 
6.7266667e+00 6.0100000e+00 0.0000000e+00 
6.7266667e+00 6.0300000e+00 0.0000000e+00 
6.7533333e+00 5.9700000e+00 0.0000000e+00 
6.7533333e+00 5.9900000e+00 0.0000000e+00 
6.7533333e+00 6.0100000e+00 0.0000000e+00 
6.7533333e+00 6.0300000e+00 0.0000000e+00 
6.7800000e+00 5.9700000e+00 0.0000000e+00 
6.7800000e+00 5.9900000e+00 0.0000000e+00 
6.7800000e+00 6.0100000e+00 0.0000000e+00 
6.7800000e+00 6.0300000e+00 0.0000000e+00 
6.8066667e+00 5.9700000e+00 0.0000000e+00 
6.8066667e+00 5.9900000e+00 0.0000000e+00 
6.8066667e+00 6.0100000e+00 0.0000000e+00 
6.8066667e+00 6.0300000e+00 0.0000000e+00 
6.8333333e+00 5.9700000e+00 0.0000000e+00 
6.8333333e+00 5.9900000e+00 0.0000000e+00 
6.8333333e+00 6.0100000e+00 0.0000000e+00 
6.8333333e+00 6.0300000e+00 0.0000000e+00 
6.8600000e+00 5.9700000e+00 0.0000000e+00 
6.8600000e+00 5.9900000e+00 0.0000000e+00 
6.8600000e+00 6.0100000e+00 0.0000000e+00 
6.8600000e+00 6.0300000e+00 0.0000000e+00 
6.8866667e+00 5.9700000e+00 0.0000000e+00 
6.8866667e+00 5.9900000e+00 0.0000000e+00 
6.8866667e+00 6.0100000e+00 0.0000000e+00 
6.8866667e+00 6.0300000e+00 0.0000000e+00 
6.9133333e+00 5.9700000e+00 0.0000000e+00 
6.9133333e+00 5.9900000e+00 0.0000000e+00 
6.9133333e+00 6.0100000e+00 0.0000000e+00 
6.9133333e+00 6.0300000e+00 0.0000000e+00 
6.9400000e+00 5.9700000e+00 0.0000000e+00 
6.9400000e+00 5.9900000e+00 0.0000000e+00 
6.9400000e+00 6.0100000e+00 0.0000000e+00 
6.9400000e+00 6.0300000e+00 0.0000000e+00 
6.9666667e+00 5.9700000e+00 0.0000000e+00 
6.9666667e+00 5.9900000e+00 0.0000000e+00 
6.9666667e+00 6.0100000e+00 0.0000000e+00 
6.9666667e+00 6.0300000e+00 0.0000000e+00 
6.9933333e+00 5.9700000e+00 0.0000000e+00 
6.9933333e+00 5.9900000e+00 0.0000000e+00 
6.9933333e+00 6.0100000e+00 0.0000000e+00 
6.9933333e+00 6.0300000e+00 0.0000000e+00 
7.0200000e+00 5.9700000e+00 0.0000000e+00 
7.0200000e+00 5.9900000e+00 0.0000000e+00 
[...]
POINT_DATA 604
FIELD FieldData 2
DISPLACEMENT 3 604  float
0.0000000e+00 0.0000000e+00 0.0000000e+00 
0.0000000e+00 0.0000000e+00 0.0000000e+00 
-4.4197263e-05 -2.3445690e-05 0.0000000e+00 
-1.4341248e-05 -1.3921347e-05 0.0000000e+00 
0.0000000e+00 0.0000000e+00 0.0000000e+00 
1.4804021e-05 -1.3997350e-05 0.0000000e+00 
-9.2463074e-05 -8.1299002e-05 0.0000000e+00 
-3.1012662e-05 -7.2750918e-05 0.0000000e+00 
0.0000000e+00 0.0000000e+00 0.0000000e+00 
4.4574850e-05 -2.3764680e-05 0.0000000e+00 
3.1703012e-05 -7.2768001e-05 0.0000000e+00 
-1.4324385e-04 -1.8377311e-04 0.0000000e+00 
9.3098628e-05 -8.1172076e-05 0.0000000e+00 
-4.7826980e-05 -1.7501749e-04 0.0000000e+00 
4.8487372e-05 -1.7528638e-04 0.0000000e+00 
1.4382852e-04 -1.8473239e-04 0.0000000e+00 
-1.9642560e-04 -3.3270267e-04 0.0000000e+00 
-6.5713635e-05 -3.2354821e-04 0.0000000e+00 
6.5904323e-05 -3.2391374e-04 0.0000000e+00 
1.9650947e-04 -3.3358841e-04 0.0000000e+00 
-2.5211131e-04 -5.2905141e-04 0.0000000e+00 
-8.4613046e-05 -5.2002956e-04 0.0000000e+00 
8.3713375e-05 -5.2079461e-04 0.0000000e+00 
2.5102803e-04 -5.3144900e-04 0.0000000e+00 
-3.1032668e-04 -7.7581141e-04 0.0000000e+00 
-1.0463607e-04 -7.6656126e-04 0.0000000e+00 
1.0181890e-04 -7.6751367e-04 0.0000000e+00 
3.0720253e-04 -7.7857940e-04 0.0000000e+00 
-3.7108917e-04 -1.0739882e-03 0.0000000e+00 
-1.2596619e-04 -1.0648276e-03 0.0000000e+00 
1.1994376e-04 -1.0662273e-03 0.0000000e+00 
3.6493898e-04 -1.0780873e-03 0.0000000e+00 
-4.3452469e-04 -1.4253406e-03 0.0000000e+00 
-1.4851532e-04 -1.4166137e-03 0.0000000e+00 
1.3817808e-04 -1.4187260e-03 0.0000000e+00 
4.2390807e-04 -1.4317720e-03 0.0000000e+00 
-5.0059642e-04 -1.8324120e-03 0.0000000e+00 
-1.7250162e-04 -1.8237620e-03 0.0000000e+00 
1.5623725e-04 -1.8263952e-03 0.0000000e+00 
4.8398237e-04 -1.8400722e-03 0.0000000e+00 
-5.6946501e-04 -2.2956795e-03 0.0000000e+00 
-1.9803540e-04 -2.2877173e-03 0.0000000e+00 
1.7395735e-04 -2.2912171e-03 0.0000000e+00 
5.4496465e-04 -2.3063120e-03 0.0000000e+00 
-6.4117510e-04 -2.8179014e-03 0.0000000e+00 
-2.2526577e-04 -2.8102520e-03 0.0000000e+00 
1.9118515e-04 -2.8145173e-03 0.0000000e+00 
6.0662641e-04 -2.8304429e-03 0.0000000e+00 
-7.1590971e-04 -3.3994497e-03 0.0000000e+00 
-2.5431647e-04 -3.3927583e-03 0.0000000e+00 
2.0772705e-04 -3.3981364e-03 0.0000000e+00 
6.6876736e-04 -3.4157125e-03 0.0000000e+00 
-7.9371147e-04 -4.0430214e-03 0.0000000e+00 
-2.8536610e-04 -4.0369129e-03 0.0000000e+00 
2.2340907e-04 -4.0433128e-03 0.0000000e+00 
7.3114820e-04 -4.0619550e-03 0.0000000e+00 
-8.7479274e-04 -4.7488664e-03 0.0000000e+00 
-3.1855404e-04 -4.7440117e-03 0.0000000e+00 
2.3801504e-04 -4.7517977e-03 0.0000000e+00 
7.9355429e-04 -4.7723487e-03 0.0000000e+00 
-9.5920740e-04 -5.5196186e-03 0.0000000e+00 
-3.5408081e-04 -5.5156446e-03 0.0000000e+00 
2.5135705e-04 -5.5247364e-03 0.0000000e+00 
8.5572407e-04 -5.5466177e-03 0.0000000e+00 
-1.0471942e-03 -6.3554111e-03 0.0000000e+00 
-3.9210070e-04 -6.3530131e-03 0.0000000e+00 
2.6319724e-04 -6.3637918e-03 0.0000000e+00 
9.1743070e-04 -6.3878671e-03 0.0000000e+00 
-1.1388191e-03 -7.2588152e-03 0.0000000e+00 
-4.3283556e-04 -7.2576226e-03 0.0000000e+00 
2.7333458e-04 -7.2700177e-03 0.0000000e+00 
9.7839096e-04 -7.2957152e-03 0.0000000e+00 
-1.2343448e-03 -8.2298518e-03 0.0000000e+00 
-4.7645425e-04 -8.2305820e-03 0.0000000e+00 
2.8150974e-04 -8.2449905e-03 0.0000000e+00 
1.0383676e-03 -8.2731926e-03 0.0000000e+00 
-1.3338486e-03 -9.2710243e-03 0.0000000e+00 
-5.2319852e-04 -9.2733131e-03 0.0000000e+00 
2.8751030e-04 -9.2896753e-03 0.0000000e+00 
1.0970567e-03 -9.3198214e-03 0.0000000e+00 
-1.4376292e-03 -1.0382251e-02 0.0000000e+00 
-5.7324300e-04 -1.0386827e-02 0.0000000e+00 
2.9106257e-04 -1.0405573e-02 0.0000000e+00 
1.1541989e-03 -1.0438549e-02 0.0000000e+00 
-1.5457895e-03 -1.1565985e-02 0.0000000e+00 
-6.2684949e-04 -1.1572517e-02 0.0000000e+00 
2.9194927e-04 -1.1593505e-02 0.0000000e+00 
1.2094601e-03 -1.1628798e-02 0.0000000e+00 
-1.6585363e-03 -1.2822364e-02 0.0000000e+00 
-6.8433686e-04 -1.2831293e-02 0.0000000e+00 
2.8973739e-04 -1.2854901e-02 0.0000000e+00 
1.2626544e-03 -1.2893032e-02 0.0000000e+00 
-1.7761460e-03 -1.4152455e-02 0.0000000e+00 
-7.4572771e-04 -1.4164264e-02 0.0000000e+00 
2.8440585e-04 -1.4190872e-02 0.0000000e+00 
1.3133297e-03 -1.4232339e-02 0.0000000e+00 
-1.8986680e-03 -1.5558234e-02 0.0000000e+00 
-8.1139769e-04 -1.5572588e-02 0.0000000e+00 
2.7555971e-04 -1.5602070e-02 0.0000000e+00 
1.3612146e-03 -1.5646376e-02 0.0000000e+00 
-2.0264431e-03 -1.7039312e-02 0.0000000e+00 
-8.8155760e-04 -1.7056980e-02 0.0000000e+00 
2.6288285e-04 -1.7089793e-02 0.0000000e+00 
1.4060324e-03 -1.7137856e-02 0.0000000e+00 
-2.1596005e-03 -1.8597925e-02 0.0000000e+00 
-9.5650370e-04 -1.8618553e-02 0.0000000e+00 
2.4613869e-04 -1.8654668e-02 0.0000000e+00 
1.4474068e-03 -1.8705958e-02 0.0000000e+00 
-2.2984905e-03 -2.0233613e-02 0.0000000e+00 
-1.0364543e-03 -2.0257993e-02 0.0000000e+00 
2.2498890e-04 -2.0297857e-02 0.0000000e+00 
1.4850687e-03 -2.0353308e-02 0.0000000e+00 
-2.4432393e-03 -2.1948551e-02 0.0000000e+00 
-1.1217273e-03 -2.1976330e-02 0.0000000e+00 
1.9918365e-04 -2.2019922e-02 0.0000000e+00 
1.5186410e-03 -2.2079013e-02 0.0000000e+00 
-2.5942132e-03 -2.3742197e-02 0.0000000e+00 
-1.2125495e-03 -2.3774176e-02 0.0000000e+00 
1.6836985e-04 -2.3821951e-02 0.0000000e+00 
1.5478472e-03 -2.3885622e-02 0.0000000e+00 
-2.7515469e-03 -2.5616658e-02 0.0000000e+00 
-1.3092521e-03 -2.5652490e-02 0.0000000e+00 
1.3229227e-04 -2.5704435e-02 0.0000000e+00 
1.5722987e-03 -2.5772174e-02 0.0000000e+00 
-2.9156206e-03 -2.7571319e-02 0.0000000e+00 
-1.4120688e-03 -2.7611814e-02 0.0000000e+00 
9.0584978e-05 -2.7668388e-02 0.0000000e+00 
1.5917132e-03 -2.7741140e-02 0.0000000e+00 
-3.0865764e-03 -2.9608218e-02 0.0000000e+00 
-1.5213431e-03 -2.9653035e-02 0.0000000e+00 
4.2988098e-05 -2.9714234e-02 0.0000000e+00 
1.6056925e-03 -2.9791498e-02 0.0000000e+00 
-3.2648062e-03 -3.1726675e-02 0.0000000e+00 
-1.6373146e-03 -3.1776628e-02 0.0000000e+00 
-1.0876113e-05 -3.1842916e-02 0.0000000e+00 
1.6139498e-03 -3.1925636e-02 0.0000000e+00 
-3.4504572e-03 -3.3928655e-02 0.0000000e+00 
-1.7603374e-03 -3.3983412e-02 0.0000000e+00 
-7.1270485e-05 -3.4054793e-02 0.0000000e+00 
1.6160788e-03 -3.4142483e-02 0.0000000e+00 
-3.6439452e-03 -3.6213418e-02 0.0000000e+00 
-1.8906473e-03 -3.6273788e-02 0.0000000e+00 
-1.3857730e-04 -3.6350746e-02 0.0000000e+00 
1.6117763e-03 -3.6444339e-02 0.0000000e+00 
-3.8454379e-03 -3.8582873e-02 0.0000000e+00 
-2.0286091e-03 -3.8648563e-02 0.0000000e+00 
-2.1305556e-04 -3.8731019e-02 0.0000000e+00 
1.6006206e-03 -3.8830071e-02 0.0000000e+00 
-4.0552466e-03 -4.1036542e-02 0.0000000e+00 
-2.1746007e-03 -4.1108041e-02 0.0000000e+00 
-2.9521845e-04 -4.1196421e-02 0.0000000e+00 
1.5823892e-03 -4.1301517e-02 0.0000000e+00 
-4.2737331e-03 -4.3574958e-02 0.0000000e+00 
-2.3287217e-03 -4.3652803e-02 0.0000000e+00 
-3.8516222e-04 -4.3747529e-02 0.0000000e+00 
1.5565812e-03 -4.3859189e-02 0.0000000e+00 
-4.5010004e-03 -4.6199545e-02 0.0000000e+00 
-2.4914241e-03 -4.6283443e-02 0.0000000e+00 
-4.8331069e-04 -4.6384446e-02 0.0000000e+00 
1.5228545e-03 -4.6502248e-02 0.0000000e+00 
-4.7374716e-03 -4.8909385e-02 0.0000000e+00 
-2.6629556e-03 -4.9000135e-02 0.0000000e+00 
-5.9006269e-04 -4.9107896e-02 0.0000000e+00 
1.4809017e-03 -4.9232767e-02 0.0000000e+00 
-4.9833166e-03 -5.1706155e-02 0.0000000e+00 
-2.8436877e-03 -5.1803448e-02 0.0000000e+00 
-7.0567467e-04 -5.1917989e-02 0.0000000e+00 
1.4302921e-03 -5.2049473e-02 0.0000000e+00 
-5.2389576e-03 -5.4588902e-02 0.0000000e+00 
-3.0338660e-03 -5.4693545e-02 0.0000000e+00 
-8.3055420e-04 -5.4815329e-02 0.0000000e+00 
1.3707313e-03 -5.4954356e-02 0.0000000e+00 
-5.5045529e-03 -5.7559239e-02 0.0000000e+00 
-3.2338723e-03 -5.7670925e-02 0.0000000e+00 
-9.6496252e-04 -5.7799978e-02 0.0000000e+00 
1.3018002e-03 -5.7946095e-02 0.0000000e+00 
-5.7805278e-03 -6.0616165e-02 0.0000000e+00 
-3.4439511e-03 -6.0735698e-02 0.0000000e+00 
-1.1093111e-03 -6.0872478e-02 0.0000000e+00 
1.2232034e-03 -6.1026610e-02 0.0000000e+00 
-6.0670394e-03 -6.3761221e-02 0.0000000e+00 
-3.6644861e-03 -6.3888298e-02 0.0000000e+00 
-1.2638578e-03 -6.4032835e-02 0.0000000e+00 
1.1345224e-03 -6.4194534e-02 0.0000000e+00 
-6.3645146e-03 -6.6993364e-02 0.0000000e+00 
-3.8957188e-03 -6.7128782e-02 0.0000000e+00 
-1.4290158e-03 -6.7281530e-02 0.0000000e+00 
1.0354626e-03 -6.7451716e-02 0.0000000e+00 
-6.6731079e-03 -7.0314065e-02 0.0000000e+00 
-4.1380342e-03 -7.0457524e-02 0.0000000e+00 
-1.6050387e-03 -7.0618514e-02 0.0000000e+00 
9.2560802e-04 -7.0796743e-02 0.0000000e+00 
-6.9932455e-03 -7.3722237e-02 0.0000000e+00 
-4.3916695e-03 -7.3874527e-02 0.0000000e+00 
-1.7923405e-03 -7.4044209e-02 0.0000000e+00 
8.0466636e-04 -7.4231393e-02 0.0000000e+00 
-7.3250768e-03 -7.7219278e-02 0.0000000e+00 
-4.6570088e-03 -7.7380106e-02 0.0000000e+00 
-1.9911681e-03 -7.7558511e-02 0.0000000e+00 
6.7222552e-04 -7.7754213e-02 0.0000000e+00 
-7.6690390e-03 -8.0804063e-02 0.0000000e+00 
-4.9342757e-03 -8.0974203e-02 0.0000000e+00 
-2.2019301e-03 -8.1161793e-02 0.0000000e+00 
5.2798562e-04 -8.1366903e-02 0.0000000e+00 
-8.0252921e-03 -8.4477935e-02 0.0000000e+00 
-5.2238557e-03 -8.4657125e-02 0.0000000e+00 
-2.4248592e-03 -8.4853847e-02 0.0000000e+00 
3.7153273e-04 -8.5067959e-02 0.0000000e+00 
-8.3941653e-03 -8.8240017e-02 0.0000000e+00 
-5.5260985e-03 -8.8428716e-02 0.0000000e+00 
-2.6604651e-03 -8.8634972e-02 0.0000000e+00 
2.0265585e-04 -8.8858657e-02 0.0000000e+00 
-8.7760096e-03 -9.2090396e-02 0.0000000e+00 
-5.8411176e-03 -9.2289119e-02 0.0000000e+00 
-2.9088550e-03 -9.2505308e-02 0.0000000e+00 
2.0875576e-05 -9.2739049e-02 0.0000000e+00 
-9.1709067e-03 -9.6029969e-02 0.0000000e+00 
-6.1693477e-03 -9.6238442e-02 0.0000000e+00 
-3.1704040e-03 -9.6464506e-02 0.0000000e+00 
-1.7413567e-04 -9.6707905e-02 0.0000000e+00 
-9.5792682e-03 -1.0005746e-01 0.0000000e+00 
-6.5109963e-03 -1.0027643e-01 0.0000000e+00 
-3.4455094e-03 -1.0051280e-01 0.0000000e+00 
-3.8266023e-04 -1.0076673e-01 0.0000000e+00 
-1.0001227e-02 -1.0417400e-01 0.0000000e+00 
-6.8664245e-03 -1.0440316e-01 0.0000000e+00 
-3.7343763e-03 -1.0464987e-01 0.0000000e+00 
-6.0509166e-04 -1.0491388e-01 0.0000000e+00 
-1.0437183e-02 -1.0837830e-01 0.0000000e+00 
-7.2358280e-03 -1.0861839e-01 0.0000000e+00 
-4.0373975e-03 -1.0887584e-01 0.0000000e+00 
-8.4169068e-04 -1.0915080e-01 0.0000000e+00 
-1.0887249e-02 -1.1267140e-01 0.0000000e+00 
-7.6195652e-03 -1.1292213e-01 0.0000000e+00 
-4.3547722e-03 -1.1319034e-01 0.0000000e+00 
-1.0928287e-03 -1.1347581e-01 0.0000000e+00 
-1.1351815e-02 -1.1705198e-01 0.0000000e+00 
-8.0178203e-03 -1.1731407e-01 0.0000000e+00 
-4.6868862e-03 -1.1759345e-01 0.0000000e+00 
-1.3587581e-03 -1.1789027e-01 0.0000000e+00 
-1.1830981e-02 -1.2152104e-01 0.0000000e+00 
-8.4309416e-03 -1.2179418e-01 0.0000000e+00 
-5.0339247e-03 -1.2208473e-01 0.0000000e+00 
-1.6398388e-03 -1.2239246e-01 0.0000000e+00 
-1.2325127e-02 -1.2607719e-01 0.0000000e+00 
-8.8591000e-03 -1.2636210e-01 0.0000000e+00 
-5.3962645e-03 -1.2666421e-01 0.0000000e+00 
-1.9363122e-03 -1.2698368e-01 0.0000000e+00 
-1.2834339e-02 -1.3072136e-01 0.0000000e+00 
-9.3026322e-03 -1.3101774e-01 0.0000000e+00 
-5.7740754e-03 -1.3133142e-01 0.0000000e+00 
-2.2485254e-03 -1.3166217e-01 0.0000000e+00 
-1.3358983e-02 -1.3545215e-01 0.0000000e+00 
-9.7616947e-03 -1.3576069e-01 0.0000000e+00 
-6.1677239e-03 -1.3608630e-01 0.0000000e+00 
-2.5767066e-03 -1.3642917e-01 0.0000000e+00 
-1.3899129e-02 -1.4027040e-01 0.0000000e+00 
-1.0236610e-02 -1.4059079e-01 0.0000000e+00 
-6.5773622e-03 -1.4092834e-01 0.0000000e+00 
-2.9211893e-03 -1.4128285e-01 0.0000000e+00 
-1.4455138e-02 -1.4517467e-01 0.0000000e+00 
-1.0727512e-02 -1.4550758e-01 0.0000000e+00 
-7.0033409e-03 -1.4585743e-01 0.0000000e+00 
-3.2821967e-03 -1.4622440e-01 0.0000000e+00 
-1.5027082e-02 -1.5016575e-01 0.0000000e+00 
-1.1234712e-02 -1.5051089e-01 0.0000000e+00 
-7.4457850e-03 -1.5087297e-01 0.0000000e+00 
-3.6600530e-03 -1.5125193e-01 0.0000000e+00 
-1.5615210e-02 -1.5524241e-01 0.0000000e+00 
-1.1758448e-02 -1.5560015e-01 0.0000000e+00 
-7.9051201e-03 -1.5597477e-01 0.0000000e+00 
-4.0548809e-03 -1.5636622e-01 0.0000000e+00 
-1.6219765e-02 -1.6040433e-01 0.0000000e+00 
-1.2298764e-02 -1.6077509e-01 0.0000000e+00 
-8.3813798e-03 -1.6116255e-01 0.0000000e+00 
-4.4670643e-03 -1.6156690e-01 0.0000000e+00 
-1.6840720e-02 -1.6565186e-01 0.0000000e+00 
-1.2855978e-02 -1.6603533e-01 0.0000000e+00 
-8.8748070e-03 -1.6643553e-01 0.0000000e+00 
-4.8968371e-03 -1.6685231e-01 0.0000000e+00 
-1.7478370e-02 -1.7098342e-01 0.0000000e+00 
-1.3430177e-02 -1.7138020e-01 0.0000000e+00 
-9.3857099e-03 -1.7179346e-01 0.0000000e+00 
-5.3443703e-03 -1.7222342e-01 0.0000000e+00 
-1.8132729e-02 -1.7639954e-01 0.0000000e+00 
-1.4021610e-02 -1.7680931e-01 0.0000000e+00 
-9.9141561e-03 -1.7723559e-01 0.0000000e+00 
-5.8099416e-03 -1.7767823e-01 0.0000000e+00 
-1.8804066e-02 -1.8189864e-01 0.0000000e+00 
-1.4630341e-02 -1.8232198e-01 0.0000000e+00 
-1.0460434e-02 -1.8276156e-01 0.0000000e+00 
-6.2936881e-03 -1.8321763e-01 0.0000000e+00 
-1.9492364e-02 -1.8748116e-01 0.0000000e+00 
-1.5256602e-02 -1.8791774e-01 0.0000000e+00 
-1.1024594e-02 -1.8837057e-01 0.0000000e+00 
-6.7958553e-03 -1.8883954e-01 0.0000000e+00 
-2.0197868e-02 -1.9314550e-01 0.0000000e+00 
-1.5900435e-02 -1.9359586e-01 0.0000000e+00 
-1.1606904e-02 -1.9406221e-01 0.0000000e+00 
-7.3165581e-03 -1.9454479e-01 0.0000000e+00 
-2.0920535e-02 -1.9889200e-01 0.0000000e+00 
-1.6562045e-02 -1.9935582e-01 0.0000000e+00 
-1.2207388e-02 -1.9983561e-01 0.0000000e+00 
-7.8560200e-03 -2.0033128e-01 0.0000000e+00 
-2.1660586e-02 -2.0471904e-01 0.0000000e+00 
-1.7241451e-02 -2.0519681e-01 0.0000000e+00 
-1.2826292e-02 -2.0569029e-01 0.0000000e+00 
-8.4143305e-03 -2.0619974e-01 0.0000000e+00 
-2.2417953e-02 -2.1062685e-01 0.0000000e+00 
-1.7938831e-02 -2.1111825e-01 0.0000000e+00 
-1.3463612e-02 -2.1162534e-01 0.0000000e+00 
-8.9916891e-03 -2.1214803e-01 0.0000000e+00 
-2.3192829e-02 -2.1661380e-01 0.0000000e+00 
-1.8654179e-02 -2.1711930e-01 0.0000000e+00 
-1.4119568e-02 -2.1764020e-01 0.0000000e+00 
-9.5881577e-03 -2.1817679e-01 0.0000000e+00 
-2.3985114e-02 -2.2268003e-01 0.0000000e+00 
-1.9387643e-02 -2.2319930e-01 0.0000000e+00 
-1.4794130e-02 -2.2373392e-01 0.0000000e+00 
-1.0203911e-02 -2.2428385e-01 0.0000000e+00 
-2.4794987e-02 -2.2882387e-01 0.0000000e+00 
-2.0139183e-02 -2.2935733e-01 0.0000000e+00 
-1.5487488e-02 -2.2990587e-01 0.0000000e+00 
-1.0838988e-02 -2.3046977e-01 0.0000000e+00 
-2.5622332e-02 -2.3504537e-01 0.0000000e+00 
-2.0908926e-02 -2.3559271e-01 0.0000000e+00 
-1.6199570e-02 -2.3615500e-01 0.0000000e+00 
-1.1493543e-02 -2.3673232e-01 0.0000000e+00 
-2.6467220e-02 -2.4134305e-01 0.0000000e+00 
-2.1696898e-02 -2.4190444e-01 0.0000000e+00 
-1.6930610e-02 -2.4248061e-01 0.0000000e+00 
-1.2167514e-02 -2.4307169e-01 0.0000000e+00 
-2.7329668e-02 -2.4771610e-01 0.0000000e+00 
-2.2502993e-02 -2.4829175e-01 0.0000000e+00 
-1.7680482e-02 -2.4888194e-01 0.0000000e+00 
-1.2861089e-02 -2.4948697e-01 0.0000000e+00 
-2.8209451e-02 -2.5416415e-01 0.0000000e+00 
-2.3327285e-02 -2.5475372e-01 0.0000000e+00 
-1.8449198e-02 -2.5535771e-01 0.0000000e+00 
-1.3574321e-02 -2.5597616e-01 0.0000000e+00 
-2.9106650e-02 -2.6068543e-01 0.0000000e+00 
-2.4169661e-02 -2.6128924e-01 0.0000000e+00 
-1.9236864e-02 -2.6190715e-01 0.0000000e+00 
-1.4307155e-02 -2.6253953e-01 0.0000000e+00 
-3.0021049e-02 -2.6727969e-01 0.0000000e+00 
-2.5030142e-02 -2.6789736e-01 0.0000000e+00 
-2.0043324e-02 -2.6852902e-01 0.0000000e+00 
-1.5059665e-02 -2.6917474e-01 0.0000000e+00 
-3.0952703e-02 -2.7394512e-01 0.0000000e+00 
-2.5908578e-02 -2.7457695e-01 0.0000000e+00 
-2.0868650e-02 -2.7522244e-01 0.0000000e+00 
-1.5831751e-02 -2.7588199e-01 0.0000000e+00 
-3.1901351e-02 -2.8068138e-01 0.0000000e+00 
-2.6804960e-02 -2.8132698e-01 0.0000000e+00 
-2.1712655e-02 -2.8198611e-01 0.0000000e+00 
-1.6623447e-02 -2.8265888e-01 0.0000000e+00 
-3.2867017e-02 -2.8748666e-01 0.0000000e+00 
-2.7719105e-02 -2.8814627e-01 0.0000000e+00 
-2.2575380e-02 -2.8881909e-01 0.0000000e+00 
-1.7434614e-02 -2.8950553e-01 0.0000000e+00 
-3.3849406e-02 -2.9436050e-01 0.0000000e+00 
-2.8650968e-02 -2.9503374e-01 0.0000000e+00 
-2.3456602e-02 -2.9572004e-01 0.0000000e+00 
-1.8265255e-02 -2.9641952e-01 0.0000000e+00 
-3.4848508e-02 -3.0130107e-01 0.0000000e+00 
-2.9600336e-02 -3.0198814e-01 0.0000000e+00 
-2.4356326e-02 -3.0268793e-01 0.0000000e+00 
-1.9115193e-02 -3.0340087e-01 0.0000000e+00 
-3.5863994e-02 -3.0830783e-01 0.0000000e+00 
-3.0567125e-02 -3.0900832e-01 0.0000000e+00 
-2.5274296e-02 -3.0972137e-01 0.0000000e+00 
-1.9984399e-02 -3.1044714e-01 0.0000000e+00 
-3.6895820e-02 -3.1537891e-01 0.0000000e+00 
-3.1551089e-02 -3.1609299e-01 0.0000000e+00 
-2.6210482e-02 -3.1681929e-01 0.0000000e+00 
-2.0872654e-02 -3.1755826e-01 0.0000000e+00 
-3.7943621e-02 -3.2251369e-01 0.0000000e+00 
-3.2552109e-02 -3.2324094e-01 0.0000000e+00 
-2.7164590e-02 -3.2398023e-01 0.0000000e+00 
-2.1779900e-02 -3.2473175e-01 0.0000000e+00 
-3.9007330e-02 -3.2971027e-01 0.0000000e+00 
-3.3569900e-02 -3.3045082e-01 0.0000000e+00 
-2.8136554e-02 -3.3120307e-01 0.0000000e+00 
-2.2705881e-02 -3.3196746e-01 0.0000000e+00 
-4.0086558e-02 -3.3696796e-01 0.0000000e+00 
-3.4604313e-02 -3.3772138e-01 0.0000000e+00 
-2.9126037e-02 -3.3848627e-01 0.0000000e+00 
-2.3650511e-02 -3.3926290e-01 0.0000000e+00 
-4.1181139e-02 -3.4428497e-01 0.0000000e+00 
-3.5655104e-02 -3.4505120e-01 0.0000000e+00 
-3.0132982e-02 -3.4582863e-01 0.0000000e+00 
-2.4613448e-02 -3.4661758e-01 0.0000000e+00 
-4.2290815e-02 -3.5166000e-01 0.0000000e+00 
-3.6721938e-02 -3.5243901e-01 0.0000000e+00 
-3.1157038e-02 -3.5322888e-01 0.0000000e+00 
-2.5594589e-02 -3.5403011e-01 0.0000000e+00 
-4.3415103e-02 -3.5909206e-01 0.0000000e+00 
-3.7804595e-02 -3.5988338e-01 0.0000000e+00 
-3.2197920e-02 -3.6068533e-01 0.0000000e+00 
-2.6593741e-02 -3.6149819e-01 0.0000000e+00 
-4.4553835e-02 -3.6657912e-01 0.0000000e+00 
-3.8902704e-02 -3.6738277e-01 0.0000000e+00 
-3.3255458e-02 -3.6819668e-01 0.0000000e+00 
-2.7610534e-02 -3.6902139e-01 0.0000000e+00 
-4.5706526e-02 -3.7412025e-01 0.0000000e+00 
-4.0016013e-02 -3.7493575e-01 0.0000000e+00 
-3.4329226e-02 -3.7576129e-01 0.0000000e+00 
-2.8644790e-02 -3.7659715e-01 0.0000000e+00 
-4.6872986e-02 -3.8171343e-01 0.0000000e+00 
-4.1144117e-02 -3.8254077e-01 0.0000000e+00 
-3.5419020e-02 -3.8337777e-01 0.0000000e+00 
-2.9696094e-02 -3.8422497e-01 0.0000000e+00 
-4.8052695e-02 -3.8935766e-01 0.0000000e+00 
-4.2286738e-02 -3.9019635e-01 0.0000000e+00 
-3.6524386e-02 -3.9104447e-01 0.0000000e+00 
-3.0764230e-02 -3.9190231e-01 0.0000000e+00 
-4.9245438e-02 -3.9705092e-01 0.0000000e+00 
-4.3443441e-02 -3.9790092e-01 0.0000000e+00 
-3.7645088e-02 -3.9875996e-01 0.0000000e+00 
-3.1848747e-02 -3.9962860e-01 0.0000000e+00 
-5.0450668e-02 -4.0479216e-01 0.0000000e+00 
-4.4613922e-02 -4.0565296e-01 0.0000000e+00 
-3.8780646e-02 -4.0652255e-01 0.0000000e+00 
-3.2949404e-02 -4.0740129e-01 0.0000000e+00 
-5.1668150e-02 -4.1257932e-01 0.0000000e+00 
-4.5797721e-02 -4.1345086e-01 0.0000000e+00 
-3.9930793e-02 -4.1433081e-01 0.0000000e+00 
-3.4065712e-02 -4.1521974e-01 0.0000000e+00 
-5.2897312e-02 -4.2041135e-01 0.0000000e+00 
-4.6994507e-02 -4.2129309e-01 0.0000000e+00 
-4.1095024e-02 -4.2218301e-01 0.0000000e+00 
-3.5197406e-02 -4.2308145e-01 0.0000000e+00 
-5.4137899e-02 -4.2828616e-01 0.0000000e+00 
-4.8203799e-02 -4.2917804e-01 0.0000000e+00 
-4.2273045e-02 -4.3007768e-01 0.0000000e+00 
-3.6343964e-02 -4.3098570e-01 0.0000000e+00 
-5.5389322e-02 -4.3620267e-01 0.0000000e+00 
-4.9425245e-02 -4.3710412e-01 0.0000000e+00 
-4.3464328e-02 -4.3801312e-01 0.0000000e+00 
-3.7505100e-02 -4.3893001e-01 0.0000000e+00 
-5.6651313e-02 -4.4415878e-01 0.0000000e+00 
-5.0658339e-02 -4.4506972e-01 0.0000000e+00 
-4.4668552e-02 -4.4598781e-01 0.0000000e+00 
-3.8680267e-02 -4.4691362e-01 0.0000000e+00 
-5.7923281e-02 -4.5215340e-01 0.0000000e+00 