# vtk DataFile Version 4.0
vtk output
ASCII
DATASET UNSTRUCTURED_GRID
POINTS 604 float
5.5000000e+00 5.9700000e+00 0.0000000e+00 
5.5000000e+00 5.9900000e+00 0.0000000e+00 
5.5266667e+00 5.9700000e+00 0.0000000e+00 
5.5266667e+00 5.9900000e+00 0.0000000e+00 
5.5000000e+00 6.0100000e+00 0.0000000e+00 
5.5266667e+00 6.0100000e+00 0.0000000e+00 
5.5533333e+00 5.9700000e+00 0.0000000e+00 
5.5533333e+00 5.9900000e+00 0.0000000e+00 
5.5000000e+00 6.0300000e+00 0.0000000e+00 
5.5266667e+00 6.0300000e+00 0.0000000e+00 
5.5533333e+00 6.0100000e+00 0.0000000e+00 
5.5800000e+00 5.9700000e+00 0.0000000e+00 
5.5533333e+00 6.0300000e+00 0.0000000e+00 
5.5800000e+00 5.9900000e+00 0.0000000e+00 
5.5800000e+00 6.0100000e+00 0.0000000e+00 
5.5800000e+00 6.0300000e+00 0.0000000e+00 
5.6066667e+00 5.9700000e+00 0.0000000e+00 
5.6066667e+00 5.9900000e+00 0.0000000e+00 
5.6066667e+00 6.0100000e+00 0.0000000e+00 
5.6066667e+00 6.0300000e+00 0.0000000e+00 
5.6333333e+00 5.9700000e+00 0.0000000e+00 
5.6333333e+00 5.9900000e+00 0.0000000e+00 
5.6333333e+00 6.0100000e+00 0.0000000e+00 
5.6333333e+00 6.0300000e+00 0.0000000e+00 
5.6600000e+00 5.9700000e+00 0.0000000e+00 
5.6600000e+00 5.9900000e+00 0.0000000e+00 
5.6600000e+00 6.0100000e+00 0.0000000e+00 
5.6600000e+00 6.0300000e+00 0.0000000e+00 
5.6866667e+00 5.9700000e+00 0.0000000e+00 
5.6866667e+00 5.9900000e+00 0.0000000e+00 
5.6866667e+00 6.0100000e+00 0.0000000e+00 
5.6866667e+00 6.0300000e+00 0.0000000e+00 
5.7133333e+00 5.9700000e+00 0.0000000e+00 
5.7133333e+00 5.9900000e+00 0.0000000e+00 
5.7133333e+00 6.0100000e+00 0.0000000e+00 
5.7133333e+00 6.0300000e+00 0.0000000e+00 
5.7400000e+00 5.9700000e+00 0.0000000e+00 
5.7400000e+00 5.9900000e+00 0.0000000e+00 
5.7400000e+00 6.0100000e+00 0.0000000e+00 
5.7400000e+00 6.0300000e+00 0.0000000e+00 
5.7666667e+00 5.9700000e+00 0.0000000e+00 
5.7666667e+00 5.9900000e+00 0.0000000e+00 
5.7666667e+00 6.0100000e+00 0.0000000e+00 
5.7666667e+00 6.0300000e+00 0.0000000e+00 
5.7933333e+00 5.9700000e+00 0.0000000e+00 
5.7933333e+00 5.9900000e+00 0.0000000e+00 
5.7933333e+00 6.0100000e+00 0.0000000e+00 
5.7933333e+00 6.0300000e+00 0.0000000e+00 
5.8200000e+00 5.9700000e+00 0.0000000e+00 
5.8200000e+00 5.9900000e+00 0.0000000e+00 
5.8200000e+00 6.0100000e+00 0.0000000e+00 
5.8200000e+00 6.0300000e+00 0.0000000e+00 
5.8466667e+00 5.9700000e+00 0.0000000e+00 
5.8466667e+00 5.9900000e+00 0.0000000e+00 
5.8466667e+00 6.0100000e+00 0.0000000e+00 
5.8466667e+00 6.0300000e+00 0.0000000e+00 
5.8733333e+00 5.9700000e+00 0.0000000e+00 
5.8733333e+00 5.9900000e+00 0.0000000e+00 
5.8733333e+00 6.0100000e+00 0.0000000e+00 
5.8733333e+00 6.0300000e+00 0.0000000e+00 
5.9000000e+00 5.9700000e+00 0.0000000e+00 
5.9000000e+00 5.9900000e+00 0.0000000e+00 
5.9000000e+00 6.0100000e+00 0.0000000e+00 
5.9000000e+00 6.0300000e+00 0.0000000e+00 
5.9266667e+00 5.9700000e+00 0.0000000e+00 
5.9266667e+00 5.9900000e+00 0.0000000e+00 
5.9266667e+00 6.0100000e+00 0.0000000e+00 
5.9266667e+00 6.0300000e+00 0.0000000e+00 
5.9533333e+00 5.9700000e+00 0.0000000e+00 
5.9533333e+00 5.9900000e+00 0.0000000e+00 
5.9533333e+00 6.0100000e+00 0.0000000e+00 
5.9533333e+00 6.0300000e+00 0.0000000e+00 
5.9800000e+00 5.9700000e+00 0.0000000e+00 
5.9800000e+00 5.9900000e+00 0.0000000e+00 
5.9800000e+00 6.0100000e+00 0.0000000e+00 
5.9800000e+00 6.0300000e+00 0.0000000e+00 
6.0066667e+00 5.9700000e+00 0.0000000e+00 
6.0066667e+00 5.9900000e+00 0.0000000e+00 
6.0066667e+00 6.0100000e+00 0.0000000e+00 
6.0066667e+00 6.0300000e+00 0.0000000e+00 
6.0333333e+00 5.9700000e+00 0.0000000e+00 
6.0333333e+00 5.9900000e+00 0.0000000e+00 
6.0333333e+00 6.0100000e+00 0.0000000e+00 
6.0333333e+00 6.0300000e+00 0.0000000e+00 
6.0600000e+00 5.9700000e+00 0.0000000e+00 
6.0600000e+00 5.9900000e+00 0.0000000e+00 
6.0600000e+00 6.0100000e+00 0.0000000e+00 
6.0600000e+00 6.0300000e+00 0.0000000e+00 
6.0866667e+00 5.9700000e+00 0.0000000e+00 
6.0866667e+00 5.9900000e+00 0.0000000e+00 
6.0866667e+00 6.0100000e+00 0.0000000e+00 
6.0866667e+00 6.0300000e+00 0.0000000e+00 
6.1133333e+00 5.9700000e+00 0.0000000e+00 
6.1133333e+00 5.9900000e+00 0.0000000e+00 
6.1133333e+00 6.0100000e+00 0.0000000e+00 
6.1133333e+00 6.0300000e+00 0.0000000e+00 
6.1400000e+00 5.9700000e+00 0.0000000e+00 
6.1400000e+00 5.9900000e+00 0.0000000e+00 
6.1400000e+00 6.0100000e+00 0.0000000e+00 
6.1400000e+00 6.0300000e+00 0.0000000e+00 
6.1666667e+00 5.9700000e+00 0.0000000e+00 
6.1666667e+00 5.9900000e+00 0.0000000e+00 
6.1666667e+00 6.0100000e+00 0.0000000e+00 
6.1666667e+00 6.0300000e+00 0.0000000e+00 
6.1933333e+00 5.9700000e+00 0.0000000e+00 
6.1933333e+00 5.9900000e+00 0.0000000e+00 
6.1933333e+00 6.0100000e+00 0.0000000e+00 
6.1933333e+00 6.0300000e+00 0.0000000e+00 
6.2200000e+00 5.9700000e+00 0.0000000e+00 
6.2200000e+00 5.9900000e+00 0.0000000e+00 
6.2200000e+00 6.0100000e+00 0.0000000e+00 
6.2200000e+00 6.0300000e+00 0.0000000e+00 
6.2466667e+00 5.9700000e+00 0.0000000e+00 
6.2466667e+00 5.9900000e+00 0.0000000e+00 
6.2466667e+00 6.0100000e+00 0.0000000e+00 
6.2466667e+00 6.0300000e+00 0.0000000e+00 
6.2733333e+00 5.9700000e+00 0.0000000e+00 
6.2733333e+00 5.9900000e+00 0.0000000e+00 
6.2733333e+00 6.0100000e+00 0.0000000e+00 
6.2733333e+00 6.0300000e+00 0.0000000e+00 
6.3000000e+00 5.9700000e+00 0.0000000e+00 
6.3000000e+00 5.9900000e+00 0.0000000e+00 
6.3000000e+00 6.0100000e+00 0.0000000e+00 
6.3000000e+00 6.0300000e+00 0.0000000e+00 
6.3266667e+00 5.9700000e+00 0.0000000e+00 
6.3266667e+00 5.9900000e+00 0.0000000e+00 
6.3266667e+00 6.0100000e+00 0.0000000e+00 
6.3266667e+00 6.0300000e+00 0.0000000e+00 
6.3533333e+00 5.9700000e+00 0.0000000e+00 
6.3533333e+00 5.9900000e+00 0.0000000e+00 
6.3533333e+00 6.0100000e+00 0.0000000e+00 
6.3533333e+00 6.0300000e+00 0.0000000e+00 
6.3800000e+00 5.9700000e+00 0.0000000e+00 
6.3800000e+00 5.9900000e+00 0.0000000e+00 
6.3800000e+00 6.0100000e+00 0.0000000e+00 
6.3800000e+00 6.0300000e+00 0.0000000e+00 
6.4066667e+00 5.9700000e+00 0.0000000e+00 
6.4066667e+00 5.9900000e+00 0.0000000e+00 
6.4066667e+00 6.0100000e+00 0.0000000e+00 
6.4066667e+00 6.0300000e+00 0.0000000e+00 
6.4333333e+00 5.9700000e+00 0.0000000e+00 
6.4333333e+00 5.9900000e+00 0.0000000e+00 
6.4333333e+00 6.0100000e+00 0.0000000e+00 
6.4333333e+00 6.0300000e+00 0.0000000e+00 
6.4600000e+00 5.9700000e+00 0.0000000e+00 
6.4600000e+00 5.9900000e+00 0.0000000e+00 
6.4600000e+00 6.0100000e+00 0.0000000e+00 
6.4600000e+00 6.0300000e+00 0.0000000e+00 
6.4866667e+00 5.9700000e+00 0.0000000e+00 
6.4866667e+00 5.9900000e+00 0.0000000e+00 
6.4866667e+00 6.0100000e+00 0.0000000e+00 
6.4866667e+00 6.0300000e+00 0.0000000e+00 
6.5133333e+00 5.9700000e+00 0.0000000e+00 
6.5133333e+00 5.9900000e+00 0.0000000e+00 
6.5133333e+00 6.0100000e+00 0.0000000e+00 
6.5133333e+00 6.0300000e+00 0.0000000e+00 
6.5400000e+00 5.9700000e+00 0.0000000e+00 
6.5400000e+00 5.9900000e+00 0.0000000e+00 
6.5400000e+00 6.0100000e+00 0.0000000e+00 
6.5400000e+00 6.0300000e+00 0.0000000e+00 
6.5666667e+00 5.9700000e+00 0.0000000e+00 
6.5666667e+00 5.9900000e+00 0.0000000e+00 
6.5666667e+00 6.0100000e+00 0.0000000e+00 
6.5666667e+00 6.0300000e+00 0.0000000e+00 
6.5933333e+00 5.9700000e+00 0.0000000e+00 
6.5933333e+00 5.9900000e+00 0.0000000e+00 
6.5933333e+00 6.0100000e+00 0.0000000e+00 
6.5933333e+00 6.0300000e+00 0.0000000e+00 
6.6200000e+00 5.9700000e+00 0.0000000e+00 
6.6200000e+00 5.9900000e+00 0.0000000e+00 
6.6200000e+00 6.0100000e+00 0.0000000e+00 
6.6200000e+00 6.0300000e+00 0.0000000e+00 
6.6466667e+00 5.9700000e+00 0.0000000e+00 
6.6466667e+00 5.9900000e+00 0.0000000e+00 
6.6466667e+00 6.0100000e+00 0.0000000e+00 
6.6466667e+00 6.0300000e+00 0.0000000e+00 
6.6733333e+00 5.9700000e+00 0.0000000e+00 
6.6733333e+00 5.9900000e+00 0.0000000e+00 
6.6733333e+00 6.0100000e+00 0.0000000e+00 
6.6733333e+00 6.0300000e+00 0.0000000e+00 
6.7000000e+00 5.9700000e+00 0.0000000e+00 
6.7000000e+00 5.9900000e+00 0.0000000e+00 
6.7000000e+00 6.0100000e+00 0.0000000e+00 
6.7000000e+00 6.0300000e+00 0.0000000e+00 
6.7266667e+00 5.9700000e+00 0.0000000e+00 
6.7266667e+00 5.9900000e+00 0.0000000e+00 
6.7266667e+00 6.0100000e+00 0.0000000e+00 
6.7266667e+00 6.0300000e+00 0.0000000e+00 
6.7533333e+00 5.9700000e+00 0.0000000e+00 
6.7533333e+00 5.9900000e+00 0.0000000e+00 
6.7533333e+00 6.0100000e+00 0.0000000e+00 
6.7533333e+00 6.0300000e+00 0.0000000e+00 
6.7800000e+00 5.9700000e+00 0.0000000e+00 
6.7800000e+00 5.9900000e+00 0.0000000e+00 
6.7800000e+00 6.0100000e+00 0.0000000e+00 
6.7800000e+00 6.0300000e+00 0.0000000e+00 
6.8066667e+00 5.9700000e+00 0.0000000e+00 
6.8066667e+00 5.9900000e+00 0.0000000e+00 
6.8066667e+00 6.0100000e+00 0.0000000e+00 
6.8066667e+00 6.0300000e+00 0.0000000e+00 
6.8333333e+00 5.9700000e+00 0.0000000e+00 
6.8333333e+00 5.9900000e+00 0.0000000e+00 
6.8333333e+00 6.0100000e+00 0.0000000e+00 
6.8333333e+00 6.0300000e+00 0.0000000e+00 
6.8600000e+00 5.9700000e+00 0.0000000e+00 
6.8600000e+00 5.9900000e+00 0.0000000e+00 
6.8600000e+00 6.0100000e+00 0.0000000e+00 
6.8600000e+00 6.0300000e+00 0.0000000e+00 
6.8866667e+00 5.9700000e+00 0.0000000e+00 
6.8866667e+00 5.9900000e+00 0.0000000e+00 
6.8866667e+00 6.0100000e+00 0.0000000e+00 
6.8866667e+00 6.0300000e+00 0.0000000e+00 
6.9133333e+00 5.9700000e+00 0.0000000e+00 
6.9133333e+00 5.9900000e+00 0.0000000e+00 
6.9133333e+00 6.0100000e+00 0.0000000e+00 
6.9133333e+00 6.0300000e+00 0.0000000e+00 
6.9400000e+00 5.9700000e+00 0.0000000e+00 
6.9400000e+00 5.9900000e+00 0.0000000e+00 
6.9400000e+00 6.0100000e+00 0.0000000e+00 
6.9400000e+00 6.0300000e+00 0.0000000e+00 
6.9666667e+00 5.9700000e+00 0.0000000e+00 
6.9666667e+00 5.9900000e+00 0.0000000e+00 
6.9666667e+00 6.0100000e+00 0.0000000e+00 
6.9666667e+00 6.0300000e+00 0.0000000e+00 
6.9933333e+00 5.9700000e+00 0.0000000e+00 
6.9933333e+00 5.9900000e+00 0.0000000e+00 
6.9933333e+00 6.0100000e+00 0.0000000e+00 
6.9933333e+00 6.0300000e+00 0.0000000e+00 
7.0200000e+00 5.9700000e+00 0.0000000e+00 
7.0200000e+00 5.9900000e+00 0.0000000e+00 
[...]
POINT_DATA 604
FIELD FieldData 2
DISPLACEMENT 3 604  float
0.0000000e+00 0.0000000e+00 0.0000000e+00 
0.0000000e+00 0.0000000e+00 0.0000000e+00 
2.6023167e-06 1.6260725e-06 0.0000000e+00 
7.9911897e-07 1.0885654e-06 0.0000000e+00 
0.0000000e+00 0.0000000e+00 0.0000000e+00 
-8.5596150e-07 1.0939205e-06 0.0000000e+00 
5.1916724e-06 5.1842681e-06 0.0000000e+00 
1.6861477e-06 4.7331316e-06 0.0000000e+00 
0.0000000e+00 0.0000000e+00 0.0000000e+00 
-2.6559473e-06 1.6498983e-06 0.0000000e+00 
-1.7949448e-06 4.7291967e-06 0.0000000e+00 
7.6935606e-06 1.1046088e-05 0.0000000e+00 
-5.2998720e-06 5.1617015e-06 0.0000000e+00 
2.4962308e-06 1.0620709e-05 0.0000000e+00 
-2.6584537e-06 1.0624194e-05 0.0000000e+00 
-7.8562138e-06 1.1068632e-05 0.0000000e+00 
1.0100924e-05 1.9154087e-05 0.0000000e+00 
3.2812525e-06 1.8725017e-05 0.0000000e+00 
-3.4985530e-06 1.8720883e-05 0.0000000e+00 
-1.0318476e-05 1.9129694e-05 0.0000000e+00 
1.2416807e-05 2.9336561e-05 0.0000000e+00 
4.0339815e-06 2.8942827e-05 0.0000000e+00 
-4.3086412e-06 2.8946463e-05 0.0000000e+00 
-1.2690243e-05 2.9356768e-05 0.0000000e+00 
1.4643542e-05 4.1610337e-05 0.0000000e+00 
4.7550107e-06 4.1213026e-05 0.0000000e+00 
-5.0904368e-06 4.1205002e-05 0.0000000e+00 
-1.4971340e-05 4.1582505e-05 0.0000000e+00 
1.6777081e-05 5.5821455e-05 0.0000000e+00 
5.4527152e-06 5.5439152e-05 0.0000000e+00 
-5.8374419e-06 5.5430453e-05 0.0000000e+00 
-1.7168602e-05 5.5792413e-05 0.0000000e+00 
1.8825943e-05 7.1893767e-05 0.0000000e+00 
6.1131055e-06 7.1543613e-05 0.0000000e+00 
-6.5635680e-06 7.1545323e-05 0.0000000e+00 
-1.9278665e-05 7.1907602e-05 0.0000000e+00 
2.0788428e-05 8.9822845e-05 0.0000000e+00 
6.7443052e-06 8.9467606e-05 0.0000000e+00 
-7.2626831e-06 8.9460701e-05 0.0000000e+00 
-2.1305899e-05 8.9790837e-05 0.0000000e+00 
2.2664492e-05 1.0944083e-04 0.0000000e+00 
7.3468709e-06 1.0911836e-04 0.0000000e+00 
-7.9349226e-06 1.0911732e-04 0.0000000e+00 
-2.3253089e-05 1.0944897e-04 0.0000000e+00 
2.4458099e-05 1.3076559e-04 0.0000000e+00 
7.9202858e-06 1.3043766e-04 0.0000000e+00 
-8.5816695e-06 1.3042931e-04 0.0000000e+00 
-2.5118828e-05 1.3072938e-04 0.0000000e+00 
2.6168443e-05 1.5363500e-04 0.0000000e+00 
8.4654378e-06 1.5333886e-04 0.0000000e+00 
-9.2029438e-06 1.5333610e-04 0.0000000e+00 
-2.6906602e-05 1.5363764e-04 0.0000000e+00 
2.7798791e-05 1.7806651e-04 0.0000000e+00 
8.9822277e-06 1.7776502e-04 0.0000000e+00 
-9.7996713e-06 1.7775516e-04 0.0000000e+00 
-2.8615679e-05 1.7802614e-04 0.0000000e+00 
2.9348493e-05 2.0390315e-04 0.0000000e+00 
9.4715928e-06 2.0363233e-04 0.0000000e+00 
-1.0371821e-05 2.0362777e-04 0.0000000e+00 
-3.0249372e-05 2.0390001e-04 0.0000000e+00 
3.0820676e-05 2.3116168e-04 0.0000000e+00 
9.9334909e-06 2.3088563e-04 0.0000000e+00 
-1.0920252e-05 2.3087417e-04 0.0000000e+00 
-3.1807056e-05 2.3111684e-04 0.0000000e+00 
3.2214979e-05 2.5969031e-04 0.0000000e+00 
1.0368825e-05 2.5944388e-04 0.0000000e+00 
-1.1444960e-05 2.5943747e-04 0.0000000e+00 
-3.3291742e-05 2.5968130e-04 0.0000000e+00 
3.3534206e-05 2.8950539e-04 0.0000000e+00 
1.0777655e-05 2.8925378e-04 0.0000000e+00 
-1.1946695e-05 2.8924064e-04 0.0000000e+00 
-3.4703095e-05 2.8945582e-04 0.0000000e+00 
3.4778392e-05 3.2045984e-04 0.0000000e+00 
1.1160826e-05 3.2023693e-04 0.0000000e+00 
-1.2425504e-05 3.2022866e-04 0.0000000e+00 
-3.6043723e-05 3.2044496e-04 0.0000000e+00 
3.5949885e-05 3.5256995e-04 0.0000000e+00 
1.1518498e-05 3.5234193e-04 0.0000000e+00 
-1.2882032e-05 3.5232711e-04 0.0000000e+00 
-3.7313727e-05 3.5251575e-04 0.0000000e+00 
3.7049785e-05 3.8569297e-04 0.0000000e+00 
1.1851116e-05 3.8549253e-04 0.0000000e+00 
-1.3316753e-05 3.8548337e-04 0.0000000e+00 
-3.8514638e-05 3.8567292e-04 0.0000000e+00 
3.8080532e-05 4.1984627e-04 0.0000000e+00 
1.2158717e-05 4.1964196e-04 0.0000000e+00 
-1.3730206e-05 4.1962304e-04 0.0000000e+00 
-3.9646504e-05 4.1978671e-04 0.0000000e+00 
3.9039504e-05 4.5490881e-04 0.0000000e+00 
1.2448525e-05 4.5471537e-04 0.0000000e+00 
-1.4117152e-05 4.5469560e-04 0.0000000e+00 
-4.0714577e-05 4.5484683e-04 0.0000000e+00 
3.9934733e-05 4.9082178e-04 0.0000000e+00 
1.2709385e-05 4.9065360e-04 0.0000000e+00 
-1.4488640e-05 4.9064183e-04 0.0000000e+00 
-4.1715786e-05 4.9079376e-04 0.0000000e+00 
4.0763678e-05 5.2758707e-04 0.0000000e+00 
1.2948437e-05 5.2741314e-04 0.0000000e+00 
-1.4839441e-05 5.2739407e-04 0.0000000e+00 
-4.2655223e-05 5.2752034e-04 0.0000000e+00 
4.1528711e-05 5.6507018e-04 0.0000000e+00 
1.3165883e-05 5.6492259e-04 0.0000000e+00 
-1.5170039e-05 5.6490827e-04 0.0000000e+00 
-4.3533201e-05 5.6503686e-04 0.0000000e+00 
4.2231076e-05 6.0329395e-04 0.0000000e+00 
1.3362030e-05 6.0313972e-04 0.0000000e+00 
-1.5480950e-05 6.0311900e-04 0.0000000e+00 
-4.4350904e-05 6.0322197e-04 0.0000000e+00 
4.2872962e-05 6.4212586e-04 0.0000000e+00 
1.3537227e-05 6.4199791e-04 0.0000000e+00 
-1.5772719e-05 6.4198210e-04 0.0000000e+00 
-4.5108787e-05 6.4208820e-04 0.0000000e+00 
4.3454669e-05 6.8159208e-04 0.0000000e+00 
1.3692171e-05 6.8145688e-04 0.0000000e+00 
-1.6045440e-05 6.8143466e-04 0.0000000e+00 
-4.5808970e-05 6.8151543e-04 0.0000000e+00 
4.3978742e-05 7.2156114e-04 0.0000000e+00 
1.3827160e-05 7.2145211e-04 0.0000000e+00 
-1.6299712e-05 7.2143495e-04 0.0000000e+00 
-4.6451560e-05 7.2151961e-04 0.0000000e+00 
4.4445193e-05 7.6206267e-04 0.0000000e+00 
1.3942947e-05 7.6194573e-04 0.0000000e+00 
-1.6535572e-05 7.6192213e-04 0.0000000e+00 
-4.7038941e-05 7.6198168e-04 0.0000000e+00 
4.4856839e-05 8.0296606e-04 0.0000000e+00 
1.4039762e-05 8.0287525e-04 0.0000000e+00 
-1.6753684e-05 8.0285692e-04 0.0000000e+00 
-4.7570961e-05 8.0292122e-04 0.0000000e+00 
4.5213435e-05 8.4430477e-04 0.0000000e+00 
1.4118414e-05 8.4420533e-04 0.0000000e+00 
-1.6954026e-05 8.4418048e-04 0.0000000e+00 
-4.8050236e-05 8.4421984e-04 0.0000000e+00 
4.5518001e-05 8.8594869e-04 0.0000000e+00 
1.4179091e-05 8.8587540e-04 0.0000000e+00 
-1.7137301e-05 8.8585607e-04 0.0000000e+00 
-4.8476423e-05 8.8590107e-04 0.0000000e+00 
4.5770044e-05 9.2793518e-04 0.0000000e+00 
1.4222615e-05 9.2785266e-04 0.0000000e+00 
-1.7303472e-05 9.2782678e-04 0.0000000e+00 
-4.8852362e-05 9.2784712e-04 0.0000000e+00 
4.5973450e-05 9.7013470e-04 0.0000000e+00 
1.4248772e-05 9.7007797e-04 0.0000000e+00 
-1.7453670e-05 9.7005889e-04 0.0000000e+00 
-4.9176843e-05 9.7008543e-04 0.0000000e+00 
4.6128140e-05 1.0125893e-03 0.0000000e+00 
1.4258190e-05 1.0125242e-03 0.0000000e+00 
-1.7587818e-05 1.0124945e-03 0.0000000e+00 
-4.9452321e-05 1.0124977e-03 0.0000000e+00 
4.6233009e-05 1.0551905e-03 0.0000000e+00 
1.4258630e-05 1.0551327e-03 0.0000000e+00 
-1.7700150e-05 1.0551027e-03 0.0000000e+00 
-4.9682545e-05 1.0550971e-03 0.0000000e+00 
4.6296569e-05 1.0978954e-03 0.0000000e+00 
1.4237346e-05 1.0978624e-03 0.0000000e+00 
-1.7803282e-05 1.0978423e-03 0.0000000e+00 
-4.9863958e-05 1.0978439e-03 0.0000000e+00 
4.6314224e-05 1.1407343e-03 0.0000000e+00 
1.4202525e-05 1.1406897e-03 0.0000000e+00 
-1.7890924e-05 1.1406617e-03 0.0000000e+00 
-5.0003593e-05 1.1406389e-03 0.0000000e+00 
4.6290072e-05 1.1835767e-03 0.0000000e+00 
1.4153893e-05 1.1835587e-03 0.0000000e+00 
-1.7964030e-05 1.1835372e-03 0.0000000e+00 
-5.0100085e-05 1.1835239e-03 0.0000000e+00 
4.6223920e-05 1.2264784e-03 0.0000000e+00 
1.4092013e-05 1.2264474e-03 0.0000000e+00 
-1.8022831e-05 1.2264189e-03 0.0000000e+00 
-5.0155904e-05 1.2263809e-03 0.0000000e+00 
4.6119154e-05 1.2693088e-03 0.0000000e+00 
1.4016905e-05 1.2693048e-03 0.0000000e+00 
-1.8068189e-05 1.2692831e-03 0.0000000e+00 
-5.0170336e-05 1.2692558e-03 0.0000000e+00 
4.5974920e-05 1.3121288e-03 0.0000000e+00 
1.3929473e-05 1.3121109e-03 0.0000000e+00 
-1.8099959e-05 1.3120821e-03 0.0000000e+00 
-5.0146506e-05 1.3120300e-03 0.0000000e+00 
4.5794597e-05 1.3548072e-03 0.0000000e+00 
1.3829755e-05 1.3548165e-03 0.0000000e+00 
-1.8118987e-05 1.3547948e-03 0.0000000e+00 
-5.0083678e-05 1.3547545e-03 0.0000000e+00 
4.5577376e-05 1.3974096e-03 0.0000000e+00 
1.3718624e-05 1.3974042e-03 0.0000000e+00 
-1.8125143e-05 1.3973753e-03 0.0000000e+00 
-4.9984914e-05 1.3973102e-03 0.0000000e+00 
4.5326560e-05 1.4398047e-03 0.0000000e+00 
1.3596116e-05 1.4398266e-03 0.0000000e+00 
-1.8119271e-05 1.4398050e-03 0.0000000e+00 
-4.9849518e-05 1.4397527e-03 0.0000000e+00 
4.5041382e-05 1.4820624e-03 0.0000000e+00 
1.3463081e-05 1.4820688e-03 0.0000000e+00 
-1.8101247e-05 1.4820398e-03 0.0000000e+00 
-4.9680482e-05 1.4819627e-03 0.0000000e+00 
4.4725021e-05 1.5240513e-03 0.0000000e+00 
1.3319577e-05 1.5240850e-03 0.0000000e+00 
-1.8071888e-05 1.5240637e-03 0.0000000e+00 
-4.9477193e-05 1.5240004e-03 0.0000000e+00 
4.4376725e-05 1.5658455e-03 0.0000000e+00 
1.3166385e-05 1.5658631e-03 0.0000000e+00 
-1.8031118e-05 1.5658344e-03 0.0000000e+00 
-4.9242596e-05 1.5657463e-03 0.0000000e+00 
4.4000404e-05 1.6073137e-03 0.0000000e+00 
1.3003127e-05 1.6073583e-03 0.0000000e+00 
-1.7980207e-05 1.6073388e-03 0.0000000e+00 
-4.8975290e-05 1.6072651e-03 0.0000000e+00 
4.3596118e-05 1.6485349e-03 0.0000000e+00 
1.2830284e-05 1.6485646e-03 0.0000000e+00 
-1.7919142e-05 1.6485326e-03 0.0000000e+00 
-4.8677415e-05 1.6484358e-03 0.0000000e+00 
4.3161432e-05 1.6894033e-03 0.0000000e+00 
1.2657161e-05 1.6894375e-03 0.0000000e+00 
-1.7840503e-05 1.6894059e-03 0.0000000e+00 
-4.8353803e-05 1.6893042e-03 0.0000000e+00 
4.2705917e-05 1.7298935e-03 0.0000000e+00 
1.2467933e-05 1.7299534e-03 0.0000000e+00 
-1.7759954e-05 1.7299346e-03 0.0000000e+00 
-4.7999474e-05 1.7298479e-03 0.0000000e+00 
4.2224291e-05 1.7700671e-03 0.0000000e+00 
1.2272245e-05 1.7701087e-03 0.0000000e+00 
-1.7669589e-05 1.7700808e-03 0.0000000e+00 
-4.7621928e-05 1.7699695e-03 0.0000000e+00 
4.1720017e-05 1.8097918e-03 0.0000000e+00 
1.2069819e-05 1.8098610e-03 0.0000000e+00 
-1.7570310e-05 1.8098416e-03 0.0000000e+00 
-4.7220112e-05 1.8097478e-03 0.0000000e+00 
4.1193491e-05 1.8491585e-03 0.0000000e+00 
1.1860909e-05 1.8492082e-03 0.0000000e+00 
-1.7462526e-05 1.8491809e-03 0.0000000e+00 
-4.6795633e-05 1.8490620e-03 0.0000000e+00 
4.0647218e-05 1.8880355e-03 0.0000000e+00 
1.1645572e-05 1.8881131e-03 0.0000000e+00 
-1.7346981e-05 1.8880945e-03 0.0000000e+00 
-4.6348302e-05 1.8879942e-03 0.0000000e+00 
4.0080821e-05 1.9265178e-03 0.0000000e+00 
1.1424472e-05 1.9265752e-03 0.0000000e+00 
-1.7223631e-05 1.9265485e-03 0.0000000e+00 
-4.5880446e-05 1.9264230e-03 0.0000000e+00 
3.9496754e-05 1.9644734e-03 0.0000000e+00 
1.1197698e-05 1.9645587e-03 0.0000000e+00 
-1.7093171e-05 1.9645410e-03 0.0000000e+00 
-4.5391882e-05 1.9644349e-03 0.0000000e+00 
3.8894699e-05 2.0020011e-03 0.0000000e+00 
1.0965876e-05 2.0020654e-03 0.0000000e+00 
-1.6955582e-05 2.0020395e-03 0.0000000e+00 
-4.4884821e-05 2.0019082e-03 0.0000000e+00 
3.8277022e-05 2.0389688e-03 0.0000000e+00 
1.0729088e-05 2.0390611e-03 0.0000000e+00 
-1.6811546e-05 2.0390443e-03 0.0000000e+00 
-4.4359116e-05 2.0389332e-03 0.0000000e+00 
3.7643429e-05 2.0754790e-03 0.0000000e+00 
1.0487944e-05 2.0755496e-03 0.0000000e+00 
-1.6661043e-05 2.0755244e-03 0.0000000e+00 
-4.3816907e-05 2.0753881e-03 0.0000000e+00 
3.6996187e-05 2.1113996e-03 0.0000000e+00 
1.0242540e-05 2.1114983e-03 0.0000000e+00 
-1.6504726e-05 2.1114823e-03 0.0000000e+00 
-4.3258099e-05 2.1113669e-03 0.0000000e+00 
3.6334959e-05 2.1468364e-03 0.0000000e+00 
9.9934349e-06 2.1469129e-03 0.0000000e+00 
-1.6342611e-05 2.1468885e-03 0.0000000e+00 
-4.2684828e-05 2.1467481e-03 0.0000000e+00 
3.5662938e-05 2.1816575e-03 0.0000000e+00 
9.7401940e-06 2.1817615e-03 0.0000000e+00 
-1.6175890e-05 2.1817481e-03 0.0000000e+00 
-4.2096026e-05 2.1816288e-03 0.0000000e+00 
3.4980673e-05 2.2159732e-03 0.0000000e+00 
9.4830681e-06 2.2160565e-03 0.0000000e+00 
-1.6004674e-05 2.2160288e-03 0.0000000e+00 
-4.1492944e-05 2.2158863e-03 0.0000000e+00 
3.4284206e-05 2.2496807e-03 0.0000000e+00 
9.2326298e-06 2.2497657e-03 0.0000000e+00 
-1.5820035e-05 2.2497386e-03 0.0000000e+00 
-4.0881547e-05 2.2495943e-03 0.0000000e+00 
3.3583975e-05 2.2827692e-03 0.0000000e+00 
8.9705069e-06 2.2828803e-03 0.0000000e+00 
-1.5640159e-05 2.2828681e-03 0.0000000e+00 
-4.0255364e-05 2.2827451e-03 0.0000000e+00 
3.2874072e-05 2.3153270e-03 0.0000000e+00 
8.7075334e-06 2.3154138e-03 0.0000000e+00 
-1.5455719e-05 2.3153912e-03 0.0000000e+00 
-3.9622179e-05 2.3152431e-03 0.0000000e+00 
3.2157418e-05 2.3472203e-03 0.0000000e+00 
8.4433798e-06 2.3473354e-03 0.0000000e+00 
-1.5267572e-05 2.3473226e-03 0.0000000e+00 
-3.8981101e-05 2.3471985e-03 0.0000000e+00 
3.1434754e-05 2.3785702e-03 0.0000000e+00 
8.1781125e-06 2.3786597e-03 0.0000000e+00 
-1.5076200e-05 2.3786378e-03 0.0000000e+00 
-3.8333082e-05 2.3784878e-03 0.0000000e+00 
3.0707989e-05 2.4092430e-03 0.0000000e+00 
7.9117252e-06 2.4093611e-03 0.0000000e+00 
-1.4882296e-05 2.4093493e-03 0.0000000e+00 
-3.7678147e-05 2.4092243e-03 0.0000000e+00 
2.9976937e-05 2.4393640e-03 0.0000000e+00 
7.6447855e-06 2.4394556e-03 0.0000000e+00 
-1.4685802e-05 2.4394344e-03 0.0000000e+00 
-3.7018161e-05 2.4392834e-03 0.0000000e+00 
2.9243474e-05 2.4687984e-03 0.0000000e+00 
7.3773139e-06 2.4689188e-03 0.0000000e+00 
-1.4487374e-05 2.4689079e-03 0.0000000e+00 
-3.6353111e-05 2.4687826e-03 0.0000000e+00 
2.8507481e-05 2.4976755e-03 0.0000000e+00 
7.1098427e-06 2.4977687e-03 0.0000000e+00 
-1.4286966e-05 2.4977481e-03 0.0000000e+00 
-3.5684768e-05 2.4975966e-03 0.0000000e+00 
2.7770726e-05 2.5258597e-03 0.0000000e+00 
6.8423832e-06 2.5259819e-03 0.0000000e+00 
-1.4085233e-05 2.5259718e-03 0.0000000e+00 
-3.5013146e-05 2.5258469e-03 0.0000000e+00 
2.7033141e-05 2.5534843e-03 0.0000000e+00 
6.5754470e-06 2.5535784e-03 0.0000000e+00 
-1.3882119e-05 2.5535585e-03 0.0000000e+00 
-3.4339925e-05 2.5534069e-03 0.0000000e+00 
2.6296322e-05 2.5804127e-03 0.0000000e+00 
6.3090643e-06 2.5805360e-03 0.0000000e+00 
-1.3678244e-05 2.5805267e-03 0.0000000e+00 
-3.3665196e-05 2.5804025e-03 0.0000000e+00 
2.5560204e-05 2.6067816e-03 0.0000000e+00 
6.0436710e-06 2.6068763e-03 0.0000000e+00 
-1.3473594e-05 2.6068570e-03 0.0000000e+00 
-3.2990579e-05 2.6067063e-03 0.0000000e+00 
2.4827359e-05 2.6324541e-03 0.0000000e+00 
5.7786911e-06 2.6325775e-03 0.0000000e+00 
-1.3269392e-05 2.6325708e-03 0.0000000e+00 
-3.2315085e-05 2.6324476e-03 0.0000000e+00 
2.4098844e-05 2.6575714e-03 0.0000000e+00 
5.5141834e-06 2.6576679e-03 0.0000000e+00 
-1.3065804e-05 2.6576446e-03 0.0000000e+00 
-3.1639159e-05 2.6574968e-03 0.0000000e+00 
2.3368918e-05 2.6820293e-03 0.0000000e+00 
5.2621537e-06 2.6821252e-03 0.0000000e+00 
-1.2852143e-05 2.6821022e-03 0.0000000e+00 
-3.0969940e-05 2.6819548e-03 0.0000000e+00 
2.2648832e-05 2.7058295e-03 0.0000000e+00 
5.0012483e-06 2.7059524e-03 0.0000000e+00 
-1.2649552e-05 2.7059468e-03 0.0000000e+00 
-3.0299251e-05 2.7058268e-03 0.0000000e+00 
2.1932137e-05 2.7290858e-03 0.0000000e+00 
4.7436195e-06 2.7291783e-03 0.0000000e+00 
-1.2447012e-05 2.7291603e-03 0.0000000e+00 
-2.9634926e-05 2.7290132e-03 0.0000000e+00 
2.1220639e-05 2.7516577e-03 0.0000000e+00 
4.4889323e-06 2.7517800e-03 0.0000000e+00 
-1.2245232e-05 2.7517732e-03 0.0000000e+00 
-2.8976453e-05 2.7516564e-03 0.0000000e+00 
2.0515811e-05 2.7736956e-03 0.0000000e+00 
4.2368808e-06 2.7737862e-03 0.0000000e+00 
-1.2044814e-05 2.7737687e-03 0.0000000e+00 
-2.8323452e-05 2.7736238e-03 0.0000000e+00 
1.9818176e-05 2.7950591e-03 0.0000000e+00 
3.9874809e-06 2.7951798e-03 0.0000000e+00 
-1.1846204e-05 2.7951737e-03 0.0000000e+00 
-2.7676553e-05 2.7950601e-03 0.0000000e+00 
1.9128182e-05 2.8159014e-03 0.0000000e+00 
3.7409674e-06 2.8159900e-03 0.0000000e+00 
-1.1649408e-05 2.8159730e-03 0.0000000e+00 
-2.7036249e-05 2.8158310e-03 0.0000000e+00 
1.8446194e-05 2.8360814e-03 0.0000000e+00 
3.4974120e-06 2.8362002e-03 0.0000000e+00 
-1.1454769e-05 2.8361948e-03 0.0000000e+00 
-2.6403222e-05 2.8360846e-03 0.0000000e+00 
1.7772777e-05 2.8557545e-03 0.0000000e+00 
3.2569714e-06 2.8558407e-03 0.0000000e+00 
-1.1262335e-05 2.8558242e-03 0.0000000e+00 
-2.5777681e-05 2.8556854e-03 0.0000000e+00 
1.7108086e-05 2.8747790e-03 0.0000000e+00 
3.0197276e-06 2.8748955e-03 0.0000000e+00 
-1.1072382e-05 2.8748907e-03 0.0000000e+00 
-2.5160429e-05 2.8747841e-03 0.0000000e+00 
1.6452766e-05 2.8933123e-03 0.0000000e+00 
2.7857873e-06 2.8933958e-03 0.0000000e+00 
-1.0884983e-05 2.8933798e-03 0.0000000e+00 
-2.4551428e-05 2.8932445e-03 0.0000000e+00 
1.5806740e-05 2.9112123e-03 0.0000000e+00 
2.5552704e-06 2.9113262e-03 0.0000000e+00 
-1.0700321e-05 2.9113219e-03 0.0000000e+00 
-2.3951636e-05 2.9112192e-03 0.0000000e+00 
1.5170662e-05 2.9286375e-03 0.0000000e+00 
2.3281882e-06 2.9287184e-03 0.0000000e+00 
-1.0518542e-05 2.9287030e-03 0.0000000e+00 
-2.3360853e-05 2.9285716e-03 0.0000000e+00 
1.4545498e-05 2.9454462e-03 0.0000000e+00 
2.1040169e-06 2.9455568e-03 0.0000000e+00 
-1.0340432e-05 2.9455550e-03 0.0000000e+00 
-2.2778927e-05 2.9454558e-03 0.0000000e+00 
1.3933140e-05 2.9617989e-03 0.0000000e+00 
1.8823674e-06 2.9618790e-03 0.0000000e+00 
-1.0166423e-05 2.9618591e-03 0.0000000e+00 
-2.2204300e-05 2.9617338e-03 0.0000000e+00 
1.3325776e-05 2.9775900e-03 0.0000000e+00 
1.6760473e-06 2.9776684e-03 0.0000000e+00 
-9.9843421e-06 2.9776487e-03 0.0000000e+00 
-2.1645437e-05 2.9775254e-03 0.0000000e+00 
1.2734701e-05 2.9928287e-03 0.0000000e+00 
1.4619063e-06 2.9929345e-03 0.0000000e+00 
-9.8171101e-06 2.9929334e-03 0.0000000e+00 
-2.1092460e-05 2.9928407e-03 0.0000000e+00 
1.2153349e-05 3.0076404e-03 0.0000000e+00 
1.2526162e-06 3.0077131e-03 0.0000000e+00 
-9.6526041e-06 3.0076988e-03 0.0000000e+00 
-2.0552159e-05 3.0075778e-03 0.0000000e+00 
1.1582109e-05 3.0218826e-03 0.0000000e+00 
1.0479998e-06 3.0219854e-03 0.0000000e+00 
-9.4910606e-06 3.0219829e-03 0.0000000e+00 
-2.0024859e-05 3.0218951e-03 0.0000000e+00 
1.1023146e-05 3.0357173e-03 0.0000000e+00 
8.4732952e-07 3.0357862e-03 0.0000000e+00 
-9.3333292e-06 3.0357722e-03 0.0000000e+00 
-1.9508385e-05 3.0356555e-03 0.0000000e+00 
1.0475689e-05 3.0490032e-03 0.0000000e+00 
6.5073171e-07 3.0491023e-03 0.0000000e+00 
-9.1793833e-06 3.0491002e-03 0.0000000e+00 
-1.9004183e-05 3.0490171e-03 0.0000000e+00 
9.9406840e-06 3.0619028e-03 0.0000000e+00 
4.5812153e-07 3.0619679e-03 0.0000000e+00 
-9.0294167e-06 3.0619544e-03 0.0000000e+00 
-1.8511228e-05 3.0618423e-03 0.0000000e+00 
9.4174027e-06 3.0742749e-03 0.0000000e+00 
2.6967776e-07 3.0743701e-03 0.0000000e+00 
-8.8833276e-06 3.0743685e-03 0.0000000e+00 
-1.8030909e-05 3.0742900e-03 0.0000000e+00 
8.9068067e-06 3.0862821e-03 0.0000000e+00 
8.5284290e-08 3.0863433e-03 0.0000000e+00 
-8.7413380e-06 3.0863303e-03 0.0000000e+00 
-1.7562132e-05 3.0862229e-03 0.0000000e+00 
8.4081752e-06 3.0977836e-03 0.0000000e+00 
-9.4883242e-08 3.0978749e-03 0.0000000e+00 
-8.6033305e-06 3.0978736e-03 0.0000000e+00 
-1.7106259e-05 3.0977998e-03 0.0000000e+00 
7.9224231e-06 3.1089421e-03 0.0000000e+00 
-2.7093846e-07 3.1089994e-03 0.0000000e+00 
-8.4695226e-06 3.1089867e-03 0.0000000e+00 
-1.6662200e-05 3.1088840e-03 0.0000000e+00 
7.4488334e-06 3.1196172e-03 0.0000000e+00 
-4.4268727e-07 3.1197043e-03 0.0000000e+00 
-8.3397618e-06 3.1197033e-03 0.0000000e+00 
-1.6231301e-05 3.1196342e-03 0.0000000e+00 
6.9881798e-06 3.1299710e-03 0.0000000e+00 
-6.1028282e-07 3.1300245e-03 0.0000000e+00 
-8.2143035e-06 3.1300122e-03 0.0000000e+00 
-1.5812576e-05 3.1299146e-03 0.0000000e+00 
6.5410246e-06 3.1398643e-03 0.0000000e+00 
-7.7419371e-07 3.1399468e-03 0.0000000e+00 
-8.0936543e-06 3.1399480e-03 0.0000000e+00 
-1.5406077e-05 3.1398831e-03 0.0000000e+00 
6.1091919e-06 3.1494597e-03 0.0000000e+00 
-9.3490174e-07 3.1495112e-03 0.0000000e+00 
-7.9783112e-06 3.1494945e-03 0.0000000e+00 
-1.5009764e-05 3.1494037e-03 0.0000000e+00 
5.6847675e-06 3.1586545e-03 0.0000000e+00 
-1.0797214e-06 3.1587039e-03 0.0000000e+00 
-7.8559923e-06 3.1586872e-03 0.0000000e+00 
-1.4632029e-05 3.1585990e-03 0.0000000e+00 
5.2789113e-06 3.1674605e-03 0.0000000e+00 
-1.2316298e-06 3.1675365e-03 0.0000000e+00 
-7.7494221e-06 3.1675381e-03 0.0000000e+00 
-1.4262651e-05 3.1674805e-03 0.0000000e+00 
4.8846879e-06 3.1760035e-03 0.0000000e+00 
-1.3780826e-06 3.1760463e-03 0.0000000e+00 