# vtk DataFile Version 4.0
vtk output
ASCII
DATASET UNSTRUCTURED_GRID
POINTS 604 float
5.5000000e+00 5.9700000e+00 0.0000000e+00 
5.5000000e+00 5.9900000e+00 0.0000000e+00 
5.5266667e+00 5.9700000e+00 0.0000000e+00 
5.5266667e+00 5.9900000e+00 0.0000000e+00 
5.5000000e+00 6.0100000e+00 0.0000000e+00 
5.5266667e+00 6.0100000e+00 0.0000000e+00 
5.5533333e+00 5.9700000e+00 0.0000000e+00 
5.5533333e+00 5.9900000e+00 0.0000000e+00 
5.5000000e+00 6.0300000e+00 0.0000000e+00 
5.5266667e+00 6.0300000e+00 0.0000000e+00 
5.5533333e+00 6.0100000e+00 0.0000000e+00 
5.5800000e+00 5.9700000e+00 0.0000000e+00 
5.5533333e+00 6.0300000e+00 0.0000000e+00 
5.5800000e+00 5.9900000e+00 0.0000000e+00 
5.5800000e+00 6.0100000e+00 0.0000000e+00 
5.5800000e+00 6.0300000e+00 0.0000000e+00 
5.6066667e+00 5.9700000e+00 0.0000000e+00 
5.6066667e+00 5.9900000e+00 0.0000000e+00 
5.6066667e+00 6.0100000e+00 0.0000000e+00 
5.6066667e+00 6.0300000e+00 0.0000000e+00 
5.6333333e+00 5.9700000e+00 0.0000000e+00 
5.6333333e+00 5.9900000e+00 0.0000000e+00 
5.6333333e+00 6.0100000e+00 0.0000000e+00 
5.6333333e+00 6.0300000e+00 0.0000000e+00 
5.6600000e+00 5.9700000e+00 0.0000000e+00 
5.6600000e+00 5.9900000e+00 0.0000000e+00 
5.6600000e+00 6.0100000e+00 0.0000000e+00 
5.6600000e+00 6.0300000e+00 0.0000000e+00 
5.6866667e+00 5.9700000e+00 0.0000000e+00 
5.6866667e+00 5.9900000e+00 0.0000000e+00 
5.6866667e+00 6.0100000e+00 0.0000000e+00 
5.6866667e+00 6.0300000e+00 0.0000000e+00 
5.7133333e+00 5.9700000e+00 0.0000000e+00 
5.7133333e+00 5.9900000e+00 0.0000000e+00 
5.7133333e+00 6.0100000e+00 0.0000000e+00 
5.7133333e+00 6.0300000e+00 0.0000000e+00 
5.7400000e+00 5.9700000e+00 0.0000000e+00 
5.7400000e+00 5.9900000e+00 0.0000000e+00 
5.7400000e+00 6.0100000e+00 0.0000000e+00 
5.7400000e+00 6.0300000e+00 0.0000000e+00 
5.7666667e+00 5.9700000e+00 0.0000000e+00 
5.7666667e+00 5.9900000e+00 0.0000000e+00 
5.7666667e+00 6.0100000e+00 0.0000000e+00 
5.7666667e+00 6.0300000e+00 0.0000000e+00 
5.7933333e+00 5.9700000e+00 0.0000000e+00 
5.7933333e+00 5.9900000e+00 0.0000000e+00 
5.7933333e+00 6.0100000e+00 0.0000000e+00 
5.7933333e+00 6.0300000e+00 0.0000000e+00 
5.8200000e+00 5.9700000e+00 0.0000000e+00 
5.8200000e+00 5.9900000e+00 0.0000000e+00 
5.8200000e+00 6.0100000e+00 0.0000000e+00 
5.8200000e+00 6.0300000e+00 0.0000000e+00 
5.8466667e+00 5.9700000e+00 0.0000000e+00 
5.8466667e+00 5.9900000e+00 0.0000000e+00 
5.8466667e+00 6.0100000e+00 0.0000000e+00 
5.8466667e+00 6.0300000e+00 0.0000000e+00 
5.8733333e+00 5.9700000e+00 0.0000000e+00 
5.8733333e+00 5.9900000e+00 0.0000000e+00 
5.8733333e+00 6.0100000e+00 0.0000000e+00 
5.8733333e+00 6.0300000e+00 0.0000000e+00 
5.9000000e+00 5.9700000e+00 0.0000000e+00 
5.9000000e+00 5.9900000e+00 0.0000000e+00 
5.9000000e+00 6.0100000e+00 0.0000000e+00 
5.9000000e+00 6.0300000e+00 0.0000000e+00 
5.9266667e+00 5.9700000e+00 0.0000000e+00 
5.9266667e+00 5.9900000e+00 0.0000000e+00 
5.9266667e+00 6.0100000e+00 0.0000000e+00 
5.9266667e+00 6.0300000e+00 0.0000000e+00 
5.9533333e+00 5.9700000e+00 0.0000000e+00 
5.9533333e+00 5.9900000e+00 0.0000000e+00 
5.9533333e+00 6.0100000e+00 0.0000000e+00 
5.9533333e+00 6.0300000e+00 0.0000000e+00 
5.9800000e+00 5.9700000e+00 0.0000000e+00 
5.9800000e+00 5.9900000e+00 0.0000000e+00 
5.9800000e+00 6.0100000e+00 0.0000000e+00 
5.9800000e+00 6.0300000e+00 0.0000000e+00 
6.0066667e+00 5.9700000e+00 0.0000000e+00 
6.0066667e+00 5.9900000e+00 0.0000000e+00 
6.0066667e+00 6.0100000e+00 0.0000000e+00 
6.0066667e+00 6.0300000e+00 0.0000000e+00 
6.0333333e+00 5.9700000e+00 0.0000000e+00 
6.0333333e+00 5.9900000e+00 0.0000000e+00 
6.0333333e+00 6.0100000e+00 0.0000000e+00 
6.0333333e+00 6.0300000e+00 0.0000000e+00 
6.0600000e+00 5.9700000e+00 0.0000000e+00 
6.0600000e+00 5.9900000e+00 0.0000000e+00 
6.0600000e+00 6.0100000e+00 0.0000000e+00 
6.0600000e+00 6.0300000e+00 0.0000000e+00 
6.0866667e+00 5.9700000e+00 0.0000000e+00 
6.0866667e+00 5.9900000e+00 0.0000000e+00 
6.0866667e+00 6.0100000e+00 0.0000000e+00 
6.0866667e+00 6.0300000e+00 0.0000000e+00 
6.1133333e+00 5.9700000e+00 0.0000000e+00 
6.1133333e+00 5.9900000e+00 0.0000000e+00 
6.1133333e+00 6.0100000e+00 0.0000000e+00 
6.1133333e+00 6.0300000e+00 0.0000000e+00 
6.1400000e+00 5.9700000e+00 0.0000000e+00 
6.1400000e+00 5.9900000e+00 0.0000000e+00 
6.1400000e+00 6.0100000e+00 0.0000000e+00 
6.1400000e+00 6.0300000e+00 0.0000000e+00 
6.1666667e+00 5.9700000e+00 0.0000000e+00 
6.1666667e+00 5.9900000e+00 0.0000000e+00 
6.1666667e+00 6.0100000e+00 0.0000000e+00 
6.1666667e+00 6.0300000e+00 0.0000000e+00 
6.1933333e+00 5.9700000e+00 0.0000000e+00 
6.1933333e+00 5.9900000e+00 0.0000000e+00 
6.1933333e+00 6.0100000e+00 0.0000000e+00 
6.1933333e+00 6.0300000e+00 0.0000000e+00 
6.2200000e+00 5.9700000e+00 0.0000000e+00 
6.2200000e+00 5.9900000e+00 0.0000000e+00 
6.2200000e+00 6.0100000e+00 0.0000000e+00 
6.2200000e+00 6.0300000e+00 0.0000000e+00 
6.2466667e+00 5.9700000e+00 0.0000000e+00 
6.2466667e+00 5.9900000e+00 0.0000000e+00 
6.2466667e+00 6.0100000e+00 0.0000000e+00 
6.2466667e+00 6.0300000e+00 0.0000000e+00 
6.2733333e+00 5.9700000e+00 0.0000000e+00 
6.2733333e+00 5.9900000e+00 0.0000000e+00 
6.2733333e+00 6.0100000e+00 0.0000000e+00 
6.2733333e+00 6.0300000e+00 0.0000000e+00 
6.3000000e+00 5.9700000e+00 0.0000000e+00 
6.3000000e+00 5.9900000e+00 0.0000000e+00 
6.3000000e+00 6.0100000e+00 0.0000000e+00 
6.3000000e+00 6.0300000e+00 0.0000000e+00 
6.3266667e+00 5.9700000e+00 0.0000000e+00 
6.3266667e+00 5.9900000e+00 0.0000000e+00 
6.3266667e+00 6.0100000e+00 0.0000000e+00 
6.3266667e+00 6.0300000e+00 0.0000000e+00 
6.3533333e+00 5.9700000e+00 0.0000000e+00 
6.3533333e+00 5.9900000e+00 0.0000000e+00 
6.3533333e+00 6.0100000e+00 0.0000000e+00 
6.3533333e+00 6.0300000e+00 0.0000000e+00 
6.3800000e+00 5.9700000e+00 0.0000000e+00 
6.3800000e+00 5.9900000e+00 0.0000000e+00 
6.3800000e+00 6.0100000e+00 0.0000000e+00 
6.3800000e+00 6.0300000e+00 0.0000000e+00 
6.4066667e+00 5.9700000e+00 0.0000000e+00 
6.4066667e+00 5.9900000e+00 0.0000000e+00 
6.4066667e+00 6.0100000e+00 0.0000000e+00 
6.4066667e+00 6.0300000e+00 0.0000000e+00 
6.4333333e+00 5.9700000e+00 0.0000000e+00 
6.4333333e+00 5.9900000e+00 0.0000000e+00 
6.4333333e+00 6.0100000e+00 0.0000000e+00 
6.4333333e+00 6.0300000e+00 0.0000000e+00 
6.4600000e+00 5.9700000e+00 0.0000000e+00 
6.4600000e+00 5.9900000e+00 0.0000000e+00 
6.4600000e+00 6.0100000e+00 0.0000000e+00 
6.4600000e+00 6.0300000e+00 0.0000000e+00 
6.4866667e+00 5.9700000e+00 0.0000000e+00 
6.4866667e+00 5.9900000e+00 0.0000000e+00 
6.4866667e+00 6.0100000e+00 0.0000000e+00 
6.4866667e+00 6.0300000e+00 0.0000000e+00 
6.5133333e+00 5.9700000e+00 0.0000000e+00 
6.5133333e+00 5.9900000e+00 0.0000000e+00 
6.5133333e+00 6.0100000e+00 0.0000000e+00 
6.5133333e+00 6.0300000e+00 0.0000000e+00 
6.5400000e+00 5.9700000e+00 0.0000000e+00 
6.5400000e+00 5.9900000e+00 0.0000000e+00 
6.5400000e+00 6.0100000e+00 0.0000000e+00 
6.5400000e+00 6.0300000e+00 0.0000000e+00 
6.5666667e+00 5.9700000e+00 0.0000000e+00 
6.5666667e+00 5.9900000e+00 0.0000000e+00 
6.5666667e+00 6.0100000e+00 0.0000000e+00 
6.5666667e+00 6.0300000e+00 0.0000000e+00 
6.5933333e+00 5.9700000e+00 0.0000000e+00 
6.5933333e+00 5.9900000e+00 0.0000000e+00 
6.5933333e+00 6.0100000e+00 0.0000000e+00 
6.5933333e+00 6.0300000e+00 0.0000000e+00 
6.6200000e+00 5.9700000e+00 0.0000000e+00 
6.6200000e+00 5.9900000e+00 0.0000000e+00 
6.6200000e+00 6.0100000e+00 0.0000000e+00 
6.6200000e+00 6.0300000e+00 0.0000000e+00 
6.6466667e+00 5.9700000e+00 0.0000000e+00 
6.6466667e+00 5.9900000e+00 0.0000000e+00 
6.6466667e+00 6.0100000e+00 0.0000000e+00 
6.6466667e+00 6.0300000e+00 0.0000000e+00 
6.6733333e+00 5.9700000e+00 0.0000000e+00 
6.6733333e+00 5.9900000e+00 0.0000000e+00 
6.6733333e+00 6.0100000e+00 0.0000000e+00 
6.6733333e+00 6.0300000e+00 0.0000000e+00 
6.7000000e+00 5.9700000e+00 0.0000000e+00 
6.7000000e+00 5.9900000e+00 0.0000000e+00 
6.7000000e+00 6.0100000e+00 0.0000000e+00 
6.7000000e+00 6.0300000e+00 0.0000000e+00 
6.7266667e+00 5.9700000e+00 0.0000000e+00 
6.7266667e+00 5.9900000e+00 0.0000000e+00 
6.7266667e+00 6.0100000e+00 0.0000000e+00 
6.7266667e+00 6.0300000e+00 0.0000000e+00 
6.7533333e+00 5.9700000e+00 0.0000000e+00 
6.7533333e+00 5.9900000e+00 0.0000000e+00 
6.7533333e+00 6.0100000e+00 0.0000000e+00 
6.7533333e+00 6.0300000e+00 0.0000000e+00 
6.7800000e+00 5.9700000e+00 0.0000000e+00 
6.7800000e+00 5.9900000e+00 0.0000000e+00 
6.7800000e+00 6.0100000e+00 0.0000000e+00 
6.7800000e+00 6.0300000e+00 0.0000000e+00 
6.8066667e+00 5.9700000e+00 0.0000000e+00 
6.8066667e+00 5.9900000e+00 0.0000000e+00 
6.8066667e+00 6.0100000e+00 0.0000000e+00 
6.8066667e+00 6.0300000e+00 0.0000000e+00 
6.8333333e+00 5.9700000e+00 0.0000000e+00 
6.8333333e+00 5.9900000e+00 0.0000000e+00 
6.8333333e+00 6.0100000e+00 0.0000000e+00 
6.8333333e+00 6.0300000e+00 0.0000000e+00 
6.8600000e+00 5.9700000e+00 0.0000000e+00 
6.8600000e+00 5.9900000e+00 0.0000000e+00 
6.8600000e+00 6.0100000e+00 0.0000000e+00 
6.8600000e+00 6.0300000e+00 0.0000000e+00 
6.8866667e+00 5.9700000e+00 0.0000000e+00 
6.8866667e+00 5.9900000e+00 0.0000000e+00 
6.8866667e+00 6.0100000e+00 0.0000000e+00 
6.8866667e+00 6.0300000e+00 0.0000000e+00 
6.9133333e+00 5.9700000e+00 0.0000000e+00 
6.9133333e+00 5.9900000e+00 0.0000000e+00 
6.9133333e+00 6.0100000e+00 0.0000000e+00 
6.9133333e+00 6.0300000e+00 0.0000000e+00 
6.9400000e+00 5.9700000e+00 0.0000000e+00 
6.9400000e+00 5.9900000e+00 0.0000000e+00 
6.9400000e+00 6.0100000e+00 0.0000000e+00 
6.9400000e+00 6.0300000e+00 0.0000000e+00 
6.9666667e+00 5.9700000e+00 0.0000000e+00 
6.9666667e+00 5.9900000e+00 0.0000000e+00 
6.9666667e+00 6.0100000e+00 0.0000000e+00 
6.9666667e+00 6.0300000e+00 0.0000000e+00 
6.9933333e+00 5.9700000e+00 0.0000000e+00 
6.9933333e+00 5.9900000e+00 0.0000000e+00 
6.9933333e+00 6.0100000e+00 0.0000000e+00 
6.9933333e+00 6.0300000e+00 0.0000000e+00 
7.0200000e+00 5.9700000e+00 0.0000000e+00 
7.0200000e+00 5.9900000e+00 0.0000000e+00 
[...]
POINT_DATA 604
FIELD FieldData 2
DISPLACEMENT 3 604  float
0.0000000e+00 0.0000000e+00 0.0000000e+00 
0.0000000e+00 0.0000000e+00 0.0000000e+00 
6.4317066e-05 3.9950893e-05 0.0000000e+00 
2.0568232e-05 2.6391497e-05 0.0000000e+00 
0.0000000e+00 0.0000000e+00 0.0000000e+00 
-1.9805626e-05 2.6254975e-05 0.0000000e+00 
1.2846424e-04 1.2551759e-04 0.0000000e+00 
4.3031470e-05 1.1483345e-04 0.0000000e+00 
0.0000000e+00 0.0000000e+00 0.0000000e+00 
-6.3730429e-05 3.9374063e-05 0.0000000e+00 
-4.1953595e-05 1.1480396e-04 0.0000000e+00 
1.9039924e-04 2.6998631e-04 0.0000000e+00 
-1.2750062e-04 1.2572414e-04 0.0000000e+00 
6.3484279e-05 2.5869450e-04 0.0000000e+00 
-6.2535117e-05 2.5824205e-04 0.0000000e+00 
-1.8958537e-04 2.6832189e-04 0.0000000e+00 
2.4988549e-04 4.6736237e-04 0.0000000e+00 
8.3063692e-05 4.5666607e-04 0.0000000e+00 
-8.2923521e-05 4.5611211e-04 0.0000000e+00 
-2.4990378e-04 4.6602643e-04 0.0000000e+00 
3.0682055e-04 7.1835061e-04 0.0000000e+00 
1.0150933e-04 7.0716357e-04 0.0000000e+00 
-1.0302776e-04 7.0603508e-04 0.0000000e+00 
-3.0859541e-04 7.1472101e-04 0.0000000e+00 
3.6117762e-04 1.0186860e-03 0.0000000e+00 
1.1876316e-04 1.0079066e-03 0.0000000e+00 
-1.2295421e-04 1.0066699e-03 0.0000000e+00 
-3.6578988e-04 1.0150580e-03 0.0000000e+00 
4.1296244e-04 1.3683435e-03 0.0000000e+00 
1.3455109e-04 1.3574612e-03 0.0000000e+00 
-1.4298118e-04 1.3557606e-03 0.0000000e+00 
-4.2143156e-04 1.3633330e-03 0.0000000e+00 
4.6193697e-04 1.7655058e-03 0.0000000e+00 
1.4919130e-04 1.7540029e-03 0.0000000e+00 
-1.6279175e-04 1.7514978e-03 0.0000000e+00 
-4.7577544e-04 1.7577244e-03 0.0000000e+00 
5.0827711e-04 2.2065153e-03 0.0000000e+00 
1.6242636e-04 2.1953329e-03 0.0000000e+00 
-1.8265860e-04 2.1925115e-03 0.0000000e+00 
-5.2878418e-04 2.1983636e-03 0.0000000e+00 
5.5178695e-04 2.6920260e-03 0.0000000e+00 
1.7422926e-04 2.6801069e-03 0.0000000e+00 
-2.0261317e-04 2.6765232e-03 0.0000000e+00 
-5.8048493e-04 2.6809187e-03 0.0000000e+00 
5.9257402e-04 3.2177703e-03 0.0000000e+00 
1.8456341e-04 3.2061374e-03 0.0000000e+00 
-2.2268931e-04 3.2021578e-03 0.0000000e+00 
-6.3098590e-04 3.2061474e-03 0.0000000e+00 
6.3044738e-04 3.7844394e-03 0.0000000e+00 
1.9341890e-04 3.7720150e-03 0.0000000e+00 
-2.4290856e-04 3.7672294e-03 0.0000000e+00 
-6.8026582e-04 3.7697136e-03 0.0000000e+00 
6.6557613e-04 4.3877270e-03 0.0000000e+00 
2.0076194e-04 4.3755685e-03 0.0000000e+00 
-2.6329896e-04 4.3703617e-03 0.0000000e+00 
-7.2840627e-04 4.3724205e-03 0.0000000e+00 
6.9775663e-04 5.0283813e-03 0.0000000e+00 
2.0659851e-04 5.0154047e-03 0.0000000e+00 
-2.8386636e-04 5.0093724e-03 0.0000000e+00 
-7.7535828e-04 5.0099041e-03 0.0000000e+00 
7.2719442e-04 5.7020611e-03 0.0000000e+00 
2.1090810e-04 5.6893518e-03 0.0000000e+00 
-3.0462312e-04 5.6828949e-03 0.0000000e+00 
-8.2119957e-04 5.6830022e-03 0.0000000e+00 
7.5367576e-04 6.4095613e-03 0.0000000e+00 
2.1371139e-04 6.3960292e-03 0.0000000e+00 
-3.2556051e-04 6.3887480e-03 0.0000000e+00 
-8.6585297e-04 6.3873275e-03 0.0000000e+00 
7.7743917e-04 7.1465053e-03 0.0000000e+00 
2.1499971e-04 7.1332615e-03 0.0000000e+00 
-3.4667673e-04 7.1255724e-03 0.0000000e+00 
-9.0939386e-04 7.1237468e-03 0.0000000e+00 
7.9826252e-04 7.9137280e-03 0.0000000e+00 
2.1480623e-04 7.8996777e-03 0.0000000e+00 
-3.6795070e-04 7.8911843e-03 0.0000000e+00 
-9.5171712e-04 7.8878497e-03 0.0000000e+00 
8.1641481e-04 8.7068263e-03 0.0000000e+00 
2.1313388e-04 8.6930969e-03 0.0000000e+00 
-3.8936657e-04 8.6842277e-03 0.0000000e+00 
-9.9289613e-04 8.6805183e-03 0.0000000e+00 
8.3164273e-04 9.5266571e-03 0.0000000e+00 
2.1003909e-04 9.5121699e-03 0.0000000e+00 
-4.1087905e-04 9.5024995e-03 0.0000000e+00 
-1.0328234e-03 9.4973294e-03 0.0000000e+00 
8.4421879e-04 1.0368767e-02 0.0000000e+00 
2.0554722e-04 1.0354608e-02 0.0000000e+00 
-4.3246406e-04 1.0344740e-02 0.0000000e+00 
-1.0715909e-03 1.0339198e-02 0.0000000e+00 
8.5412656e-04 1.1233418e-02 0.0000000e+00 
1.9946825e-04 1.1219105e-02 0.0000000e+00 
-4.5429651e-04 1.1208725e-02 0.0000000e+00 
-1.1089541e-03 1.1202336e-02 0.0000000e+00 
8.6120173e-04 1.2118823e-02 0.0000000e+00 
1.9225959e-04 1.2103864e-02 0.0000000e+00 
-4.7591976e-04 1.2092685e-02 0.0000000e+00 
-1.1450533e-03 1.2084950e-02 0.0000000e+00 
8.6582177e-04 1.3021146e-02 0.0000000e+00 
1.8373447e-04 1.3006665e-02 0.0000000e+00 
-4.9752277e-04 1.2995292e-02 0.0000000e+00 
-1.1797905e-03 1.2987322e-02 0.0000000e+00 
8.6771660e-04 1.3941328e-02 0.0000000e+00 
1.7395882e-04 1.3926228e-02 0.0000000e+00 
-5.1903786e-04 1.3914244e-02 0.0000000e+00 
-1.2129957e-03 1.3904953e-02 0.0000000e+00 
8.6721334e-04 1.4874837e-02 0.0000000e+00 
1.6297319e-04 1.4860312e-02 0.0000000e+00 
-5.4040163e-04 1.4848182e-02 0.0000000e+00 
-1.2447700e-03 1.4838748e-02 0.0000000e+00 
8.6405013e-04 1.5822607e-02 0.0000000e+00 
1.5085282e-04 1.5807541e-02 0.0000000e+00 
-5.6155308e-04 1.5794882e-02 0.0000000e+00 
-1.2749021e-03 1.5784201e-02 0.0000000e+00 
8.5859390e-04 1.6780067e-02 0.0000000e+00 
1.3763081e-04 1.6765671e-02 0.0000000e+00 
-5.8243195e-04 1.6752954e-02 0.0000000e+00 
-1.3034742e-03 1.6742215e-02 0.0000000e+00 
8.5057222e-04 1.7748154e-02 0.0000000e+00 
1.2338751e-04 1.7733311e-02 0.0000000e+00 
-6.0297303e-04 1.7720156e-02 0.0000000e+00 
-1.3302595e-03 1.7708259e-02 0.0000000e+00 
8.4036686e-04 1.8722268e-02 0.0000000e+00 
1.0815982e-04 1.8708196e-02 0.0000000e+00 
-6.2310908e-04 1.8695079e-02 0.0000000e+00 
-1.3553430e-03 1.8683216e-02 0.0000000e+00 
8.2769678e-04 1.9703338e-02 0.0000000e+00 
9.2032833e-05 1.9688918e-02 0.0000000e+00 
-6.4277135e-04 1.9675462e-02 0.0000000e+00 
-1.3784840e-03 1.9662535e-02 0.0000000e+00 
8.1295652e-04 2.0686734e-02 0.0000000e+00 
7.5045515e-05 2.0673192e-02 0.0000000e+00 
-6.6188751e-04 2.0659874e-02 0.0000000e+00 
-1.3997708e-03 2.0647077e-02 0.0000000e+00 
7.9585771e-04 2.1673371e-02 0.0000000e+00 
5.7285896e-05 2.1659588e-02 0.0000000e+00 
-6.8038735e-04 2.1646032e-02 0.0000000e+00 
-1.4189504e-03 2.1632270e-02 0.0000000e+00 
7.7680600e-04 2.2658600e-02 0.0000000e+00 
3.8794514e-05 2.2645797e-02 0.0000000e+00 
-6.9819392e-04 2.2632482e-02 0.0000000e+00 
-1.4361139e-03 2.2618942e-02 0.0000000e+00 
7.5548204e-04 2.3643304e-02 0.0000000e+00 
1.9673697e-05 2.3630384e-02 0.0000000e+00 
-7.1522311e-04 2.3616900e-02 0.0000000e+00 
-1.4510234e-03 2.3602509e-02 0.0000000e+00 
7.3227320e-04 2.4622791e-02 0.0000000e+00 
-2.0322325e-08 2.4610913e-02 0.0000000e+00 
-7.3140254e-04 2.4597904e-02 0.0000000e+00 
-1.4637938e-03 2.4583790e-02 0.0000000e+00 
7.0712957e-04 2.5597297e-02 0.0000000e+00 
-2.0454576e-05 2.5585977e-02 0.0000000e+00 
-7.4687475e-04 2.5573145e-02 0.0000000e+00 
-1.4740823e-03 2.5558840e-02 0.0000000e+00 
6.7990017e-04 2.6564862e-02 0.0000000e+00 
-4.1135771e-05 2.6553625e-02 0.0000000e+00 
-7.6114570e-04 2.6540693e-02 0.0000000e+00 
-1.4819886e-03 2.6525719e-02 0.0000000e+00 
6.5101646e-04 2.7521461e-02 0.0000000e+00 
-6.2239367e-05 2.7511464e-02 0.0000000e+00 
-7.7437574e-04 2.7499062e-02 0.0000000e+00 
-1.4874239e-03 2.7484542e-02 0.0000000e+00 
6.2015885e-04 2.8467912e-02 0.0000000e+00 
-8.3681846e-05 2.8458061e-02 0.0000000e+00 
-7.8648662e-04 2.8445780e-02 0.0000000e+00 
-1.4901334e-03 2.8430641e-02 0.0000000e+00 
5.8771380e-04 2.9399498e-02 0.0000000e+00 
-1.0541815e-04 2.9390994e-02 0.0000000e+00 
-7.9739047e-04 2.9379304e-02 0.0000000e+00 
-1.4902587e-03 2.9364723e-02 0.0000000e+00 
5.5337490e-04 3.0316973e-02 0.0000000e+00 
-1.2736299e-04 3.0308711e-02 0.0000000e+00 
-8.0703011e-04 3.0297235e-02 0.0000000e+00 
-1.4875239e-03 3.0282118e-02 0.0000000e+00 
5.1754622e-04 3.1215619e-02 0.0000000e+00 
-1.4948924e-04 3.1208791e-02 0.0000000e+00 
-8.1533353e-04 3.1197990e-02 0.0000000e+00 
-1.4820619e-03 3.1183514e-02 0.0000000e+00 
4.7991790e-04 3.2096148e-02 0.0000000e+00 
-1.7171744e-04 3.2089653e-02 0.0000000e+00 
-8.2225367e-04 3.2079149e-02 0.0000000e+00 
-1.4736028e-03 3.2064218e-02 0.0000000e+00 
4.4088607e-04 3.2953858e-02 0.0000000e+00 
-1.9402757e-04 3.2948867e-02 0.0000000e+00 
-8.2772490e-04 3.2939113e-02 0.0000000e+00 
-1.4622949e-03 3.2924894e-02 0.0000000e+00 
4.0013898e-04 3.3789409e-02 0.0000000e+00 
-2.1634681e-04 3.3784831e-02 0.0000000e+00 
-8.3171199e-04 3.3775444e-02 0.0000000e+00 
-1.4478768e-03 3.3760837e-02 0.0000000e+00 
3.5806273e-04 3.4598133e-02 0.0000000e+00 
-2.3866463e-04 3.4595111e-02 0.0000000e+00 
-8.3415840e-04 3.4586533e-02 0.0000000e+00 
-1.4305141e-03 3.4572696e-02 0.0000000e+00 
3.1434442e-04 3.5380634e-02 0.0000000e+00 
-2.6091702e-04 3.5378089e-02 0.0000000e+00 
-8.3504381e-04 3.5369931e-02 0.0000000e+00 
-1.4099563e-03 3.5355761e-02 0.0000000e+00 
2.6935876e-04 3.6132299e-02 0.0000000e+00 
-2.8310449e-04 3.6131337e-02 0.0000000e+00 
-8.3432200e-04 3.6124027e-02 0.0000000e+00 
-1.3863878e-03 3.6110662e-02 0.0000000e+00 
2.2276762e-04 3.6853674e-02 0.0000000e+00 
-3.0516094e-04 3.6853244e-02 0.0000000e+00 
-8.3197727e-04 3.6846356e-02 0.0000000e+00 
-1.3595953e-03 3.6832706e-02 0.0000000e+00 
1.7490710e-04 3.7540178e-02 0.0000000e+00 
-3.2708865e-04 3.7541302e-02 0.0000000e+00 
-8.2798091e-04 3.7535405e-02 0.0000000e+00 
-1.3298017e-03 3.7522540e-02 0.0000000e+00 
1.2569294e-04 3.8191768e-02 0.0000000e+00 
-3.4907687e-04 3.8193947e-02 0.0000000e+00 
-8.2255269e-04 3.8188712e-02 0.0000000e+00 
-1.2967287e-03 3.8176125e-02 0.0000000e+00 
7.4973650e-05 3.8806383e-02 0.0000000e+00 
-3.7072891e-04 3.8809140e-02 0.0000000e+00 
-8.1529084e-04 3.8804252e-02 0.0000000e+00 
-1.2605855e-03 3.8791432e-02 0.0000000e+00 
2.3092968e-05 3.9380228e-02 0.0000000e+00 
-3.9226793e-04 3.9384525e-02 0.0000000e+00 
-8.0642994e-04 3.9380518e-02 0.0000000e+00 
-1.2214229e-03 3.9368511e-02 0.0000000e+00 
-3.0273245e-05 3.9913776e-02 0.0000000e+00 
-4.1368177e-04 3.9918592e-02 0.0000000e+00 
-7.9600389e-04 3.9915023e-02 0.0000000e+00 
-1.1790734e-03 3.9902716e-02 0.0000000e+00 
-8.4846690e-05 4.0402713e-02 0.0000000e+00 
-4.3501260e-04 4.0409014e-02 0.0000000e+00 
-7.8401223e-04 4.0406247e-02 0.0000000e+00 
-1.1338338e-03 4.0394730e-02 0.0000000e+00 
-1.4093835e-04 4.0847455e-02 0.0000000e+00 
-4.5625611e-04 4.0854218e-02 0.0000000e+00 
-7.7052838e-04 4.0851833e-02 0.0000000e+00 
-1.0855397e-03 4.0839961e-02 0.0000000e+00 
-1.9827273e-04 4.1243803e-02 0.0000000e+00 
-4.7748510e-04 4.1251953e-02 0.0000000e+00 
-7.5558224e-04 4.1250294e-02 0.0000000e+00 
-1.0344972e-03 4.1239148e-02 0.0000000e+00 
-2.5716303e-04 4.1592159e-02 0.0000000e+00 
-4.9871282e-04 4.1600684e-02 0.0000000e+00 
-7.3927449e-04 4.1599320e-02 0.0000000e+00 
-9.8056927e-04 4.1587743e-02 0.0000000e+00 
-3.1735940e-04 4.1888458e-02 0.0000000e+00 
-5.2003162e-04 4.1898236e-02 0.0000000e+00 
-7.2165508e-04 4.1897489e-02 0.0000000e+00 
-9.2409415e-04 4.1886545e-02 0.0000000e+00 
-3.7917704e-04 4.2133093e-02 0.0000000e+00 
-5.4147230e-04 4.2143125e-02 0.0000000e+00 
-7.0285242e-04 4.2142555e-02 0.0000000e+00 
-8.6496141e-04 4.2131073e-02 0.0000000e+00 
-4.4239178e-04 4.2322148e-02 0.0000000e+00 
-5.6314793e-04 4.2333264e-02 0.0000000e+00 
-6.8293729e-04 4.2333169e-02 0.0000000e+00 
-8.0354201e-04 4.2322198e-02 0.0000000e+00 
-5.0732101e-04 4.2456024e-02 0.0000000e+00 
-5.8510772e-04 4.2467238e-02 0.0000000e+00 
-6.6206711e-04 4.2467167e-02 0.0000000e+00 
-7.3975179e-04 4.2455521e-02 0.0000000e+00 
-5.7376506e-04 4.2530972e-02 0.0000000e+00 
-6.0748540e-04 4.2543060e-02 0.0000000e+00 
-6.4033233e-04 4.2543289e-02 0.0000000e+00 
-6.7399383e-04 4.2531995e-02 0.0000000e+00 
-6.4206506e-04 4.2547406e-02 0.0000000e+00 
-6.3033673e-04 4.2559408e-02 0.0000000e+00 
-6.1790968e-04 4.2559449e-02 0.0000000e+00 
-6.0622901e-04 4.2547325e-02 0.0000000e+00 
-7.1206688e-04 4.2501724e-02 0.0000000e+00 
-6.5381289e-04 4.2514333e-02 0.0000000e+00 
-5.9490637e-04 4.2514572e-02 0.0000000e+00 
-5.3690744e-04 4.2502572e-02 0.0000000e+00 
-7.8390939e-04 4.2393935e-02 0.0000000e+00 
-6.7817882e-04 4.2406625e-02 0.0000000e+00 
-5.7173384e-04 4.2406664e-02 0.0000000e+00 
-4.6595051e-04 4.2394175e-02 0.0000000e+00 
-8.5776583e-04 4.2222530e-02 0.0000000e+00 
-7.0324284e-04 4.2234788e-02 0.0000000e+00 
-5.4819015e-04 4.2234223e-02 0.0000000e+00 
-3.9381332e-04 4.2220657e-02 0.0000000e+00 
-9.3345989e-04 4.1984804e-02 0.0000000e+00 
-7.2932279e-04 4.1997248e-02 0.0000000e+00 
-5.2466193e-04 4.1996435e-02 0.0000000e+00 
-3.2080413e-04 4.1982707e-02 0.0000000e+00 
-1.0113223e-03 4.1681352e-02 0.0000000e+00 
-7.5653803e-04 4.1693067e-02 0.0000000e+00 
-5.0138794e-04 4.1691499e-02 0.0000000e+00 
-2.4693908e-04 4.1676411e-02 0.0000000e+00 
-1.0912628e-03 4.1309181e-02 0.0000000e+00 
-7.8507749e-04 4.1320774e-02 0.0000000e+00 
-4.7851044e-04 4.1318650e-02 0.0000000e+00 
-1.7275231e-04 4.1303158e-02 0.0000000e+00 
-1.1736024e-03 4.0868921e-02 0.0000000e+00 
-8.1506331e-04 4.0879479e-02 0.0000000e+00 
-4.5630750e-04 4.0876315e-02 0.0000000e+00 
-9.8257569e-05 4.0859201e-02 0.0000000e+00 
-1.2582515e-03 4.0357787e-02 0.0000000e+00 
-8.4671029e-04 4.0367879e-02 0.0000000e+00 
-4.3494328e-04 4.0363855e-02 0.0000000e+00 
-2.3995142e-05 4.0346062e-02 0.0000000e+00 
-1.3455308e-03 3.9776484e-02 0.0000000e+00 
-8.8015260e-04 3.9785217e-02 0.0000000e+00 
-4.1471798e-04 3.9779848e-02 0.0000000e+00 
5.0004297e-05 3.9760160e-02 0.0000000e+00 
-1.4353685e-03 3.9122456e-02 0.0000000e+00 
-9.1561709e-04 3.9130358e-02 0.0000000e+00 
-3.9580468e-04 3.9123806e-02 0.0000000e+00 
1.2317821e-04 3.9103145e-02 0.0000000e+00 
-1.5280832e-03 3.8396487e-02 0.0000000e+00 
-9.5324649e-04 3.8402687e-02 0.0000000e+00 
-3.7852167e-04 3.8394468e-02 0.0000000e+00 
1.9548401e-04 3.8371621e-02 0.0000000e+00 
-1.6236171e-03 3.7596253e-02 0.0000000e+00 
-9.9327727e-04 3.7601241e-02 0.0000000e+00 
-3.6304786e-04 3.7591502e-02 0.0000000e+00 
2.6634130e-04 3.7567374e-02 0.0000000e+00 
-1.7222850e-03 3.6722625e-02 0.0000000e+00 
-1.0358581e-03 3.6725556e-02 0.0000000e+00 
-3.4971644e-04 3.6713816e-02 0.0000000e+00 
3.3570051e-04 3.6687204e-02 0.0000000e+00 
-1.8240382e-03 3.5773525e-02 0.0000000e+00 
-1.0812313e-03 3.5774849e-02 0.0000000e+00 
-3.3870754e-04 3.5761241e-02 0.0000000e+00 
4.0296801e-04 3.5733026e-02 0.0000000e+00 
-1.9292024e-03 3.4749912e-02 0.0000000e+00 
-1.1295382e-03 3.4748820e-02 0.0000000e+00 
-3.3035841e-04 3.4732848e-02 0.0000000e+00 
4.6807678e-04 3.4701858e-02 0.0000000e+00 
-2.0377527e-03 3.3649924e-02 0.0000000e+00 
-1.1810255e-03 3.3646812e-02 0.0000000e+00 
-3.2483922e-04 3.3628704e-02 0.0000000e+00 
5.3041241e-04 3.3595752e-02 0.0000000e+00 
-2.1498544e-03 3.2474296e-02 0.0000000e+00 
-1.2359757e-03 3.2468687e-02 0.0000000e+00 
-3.2266656e-04 3.2448049e-02 0.0000000e+00 
5.8994968e-04 3.2412493e-02 0.0000000e+00 
-2.2656620e-03 3.1222748e-02 0.0000000e+00 
-1.2943377e-03 3.1214169e-02 0.0000000e+00 
-3.2377446e-04 3.1190592e-02 0.0000000e+00 
6.4612245e-04 3.1151881e-02 0.0000000e+00 
-2.3850749e-03 2.9894285e-02 0.0000000e+00 
-1.3564284e-03 2.9883095e-02 0.0000000e+00 
-3.2856396e-04 2.9856810e-02 0.0000000e+00 
6.9848334e-04 2.9815712e-02 0.0000000e+00 
-2.5083823e-03 2.8490243e-02 0.0000000e+00 
-1.4223952e-03 2.8475726e-02 0.0000000e+00 
-3.3736420e-04 2.8446275e-02 0.0000000e+00 
7.4698353e-04 2.8401692e-02 0.0000000e+00 
-2.6355494e-03 2.7009507e-02 0.0000000e+00 
-1.4924584e-03 2.6992022e-02 0.0000000e+00 
-3.5031675e-04 2.6959516e-02 0.0000000e+00 
7.9101047e-04 2.6912261e-02 0.0000000e+00 
-2.7668466e-03 2.5453493e-02 0.0000000e+00 
-1.5667404e-03 2.5432345e-02 0.0000000e+00 
-3.6775727e-04 2.5396369e-02 0.0000000e+00 
8.3054964e-04 2.5345360e-02 0.0000000e+00 
-2.9022128e-03 2.3821312e-02 0.0000000e+00 
-1.6454590e-03 2.3796852e-02 0.0000000e+00 
-3.8981794e-04 2.3757518e-02 0.0000000e+00 
8.6501424e-04 2.3703561e-02 0.0000000e+00 
-3.0419021e-03 2.2114501e-02 0.0000000e+00 
-1.7287211e-03 2.2086069e-02 0.0000000e+00 
-4.1682384e-04 2.2042983e-02 0.0000000e+00 
8.9440892e-04 2.1985031e-02 0.0000000e+00 
-3.1858401e-03 2.0332396e-02 0.0000000e+00 
-1.8167289e-03 2.0300334e-02 0.0000000e+00 
-4.4888555e-04 2.0253612e-02 0.0000000e+00 
9.1816044e-04 2.0192461e-02 0.0000000e+00 
-3.3342621e-03 1.8476650e-02 0.0000000e+00 
-1.9095697e-03 1.8440335e-02 0.0000000e+00 
-4.8631240e-04 1.8389609e-02 0.0000000e+00 
9.3629843e-04 1.8324249e-02 0.0000000e+00 
-3.4870762e-03 1.6546820e-02 0.0000000e+00 
-2.0074269e-03 1.6506589e-02 0.0000000e+00 
-5.2919000e-04 1.6451981e-02 0.0000000e+00 
9.4826774e-04 1.6383200e-02 0.0000000e+00 
-3.6444969e-03 1.4544675e-02 0.0000000e+00 
-2.1103655e-03 1.4499944e-02 0.0000000e+00 
-5.7780839e-04 1.4441111e-02 0.0000000e+00 
9.5412813e-04 1.4367943e-02 0.0000000e+00 
-3.8064107e-03 1.2469988e-02 0.0000000e+00 
-2.2185467e-03 1.2421091e-02 0.0000000e+00 
-6.3222417e-04 1.2358164e-02 0.0000000e+00 
9.5334646e-04 1.2281384e-02 0.0000000e+00 
-3.9730221e-03 1.0324641e-02 0.0000000e+00 
-2.3320028e-03 1.0271038e-02 0.0000000e+00 
-6.9269992e-04 1.0203689e-02 0.0000000e+00 
9.4600537e-04 1.0122389e-02 0.0000000e+00 
-4.1442100e-03 8.1085884e-03 0.0000000e+00 
-2.4508725e-03 8.0506003e-03 0.0000000e+00 
-7.5925429e-04 7.9790452e-03 0.0000000e+00 
9.3159122e-04 7.8939556e-03 0.0000000e+00 
-4.3200395e-03 5.8235933e-03 0.0000000e+00 
-2.5752709e-03 5.7609428e-03 0.0000000e+00 
-8.3224205e-04 5.6849600e-03 0.0000000e+00 
9.1023361e-04 5.5956129e-03 0.0000000e+00 
-4.5005167e-03 3.4707267e-03 0.0000000e+00 
-2.7050768e-03 3.4031299e-03 0.0000000e+00 
-9.1152200e-04 3.3224771e-03 0.0000000e+00 
8.8156548e-04 3.2285459e-03 0.0000000e+00 
-4.6854183e-03 1.0505964e-03 0.0000000e+00 
-2.8404179e-03 9.7839143e-04 0.0000000e+00 
-9.9726339e-04 8.9332741e-04 0.0000000e+00 
8.4528460e-04 7.9549946e-04 0.0000000e+00 
-4.8748779e-03 -1.4345359e-03 0.0000000e+00 
-2.9812670e-03 -1.5117727e-03 0.0000000e+00 
-1.0896353e-03 -1.6014876e-03 0.0000000e+00 
8.0156280e-04 -1.7039655e-03 0.0000000e+00 
-5.0687001e-03 -3.9841520e-03 0.0000000e+00 
-3.1276784e-03 -4.0660585e-03 0.0000000e+00 
-1.1885674e-03 -4.1602462e-03 0.0000000e+00 
7.4999102e-04 -4.2666442e-03 0.0000000e+00 
-5.2669949e-03 -6.5959218e-03 0.0000000e+00 
-3.2795814e-03 -6.6828952e-03 0.0000000e+00 
-1.2942048e-03 -6.7817455e-03 0.0000000e+00 
6.9079552e-04 -6.8927734e-03 0.0000000e+00 
-5.4695260e-03 -9.2691880e-03 0.0000000e+00 
-3.4370081e-03 -9.3608495e-03 0.0000000e+00 
-1.4064488e-03 -9.4641682e-03 0.0000000e+00 
6.2361793e-04 -9.5791005e-03 0.0000000e+00 
-5.6763799e-03 -1.2001531e-02 0.0000000e+00 
-3.5998572e-03 -1.2098241e-02 0.0000000e+00 
-1.5254108e-03 -1.2206184e-02 0.0000000e+00 
5.4872263e-04 -1.2325676e-02 0.0000000e+00 
-5.8872930e-03 -1.4792163e-02 0.0000000e+00 
-3.7681316e-03 -1.4893528e-02 0.0000000e+00 
-1.6509576e-03 -1.5005886e-02 0.0000000e+00 
4.6579072e-04 -1.5129222e-02 0.0000000e+00 
-6.1023296e-03 -1.7638586e-02 0.0000000e+00 
-3.9416993e-03 -1.7744931e-02 0.0000000e+00 
-1.7831656e-03 -1.7861829e-02 0.0000000e+00 
3.7512473e-04 -1.7989608e-02 0.0000000e+00 
-6.3211995e-03 -2.0539898e-02 0.0000000e+00 
-4.1205354e-03 -2.0650815e-02 0.0000000e+00 
-1.9218682e-03 -2.0772027e-02 0.0000000e+00 
2.7644626e-04 -2.0903545e-02 0.0000000e+00 
-6.5439464e-03 -2.3493534e-02 0.0000000e+00 
-4.3044786e-03 -2.3609315e-02 0.0000000e+00 
-2.0671078e-03 -2.3734934e-02 0.0000000e+00 
1.7009518e-04 -2.3870734e-02 0.0000000e+00 
-6.7702547e-03 -2.6498492e-02 0.0000000e+00 
-4.4934774e-03 -2.6618712e-02 0.0000000e+00 
-2.2186853e-03 -2.6748502e-02 0.0000000e+00 
5.5833986e-05 -2.6887898e-02 0.0000000e+00 
-7.0001586e-03 -2.9552148e-02 0.0000000e+00 
-4.6873381e-03 -2.9677068e-02 0.0000000e+00 
-2.3766060e-03 -2.9811100e-02 0.0000000e+00 
-6.5971209e-05 -2.9954567e-02 0.0000000e+00 
-7.2333344e-03 -3.2653436e-02 0.0000000e+00 
-4.8859842e-03 -3.2782630e-02 0.0000000e+00 
-2.5406413e-03 -3.2920603e-02 0.0000000e+00 
-1.9551619e-04 -3.3067498e-02 0.0000000e+00 
-7.4697075e-03 -3.5799866e-02 0.0000000e+00 
-5.0892930e-03 -3.5933372e-02 0.0000000e+00 
-2.7108204e-03 -3.6075284e-02 0.0000000e+00 
-3.3240687e-04 -3.6225789e-02 0.0000000e+00 
-7.7091416e-03 -3.8989571e-02 0.0000000e+00 
-5.2969816e-03 -3.9127455e-02 0.0000000e+00 