# vtk DataFile Version 4.0
vtk output
ASCII
DATASET UNSTRUCTURED_GRID
POINTS 604 float
5.5000000e+00 5.9700000e+00 0.0000000e+00 
5.5000000e+00 5.9900000e+00 0.0000000e+00 
5.5266667e+00 5.9700000e+00 0.0000000e+00 
5.5266667e+00 5.9900000e+00 0.0000000e+00 
5.5000000e+00 6.0100000e+00 0.0000000e+00 
5.5266667e+00 6.0100000e+00 0.0000000e+00 
5.5533333e+00 5.9700000e+00 0.0000000e+00 
5.5533333e+00 5.9900000e+00 0.0000000e+00 
5.5000000e+00 6.0300000e+00 0.0000000e+00 
5.5266667e+00 6.0300000e+00 0.0000000e+00 
5.5533333e+00 6.0100000e+00 0.0000000e+00 
5.5800000e+00 5.9700000e+00 0.0000000e+00 
5.5533333e+00 6.0300000e+00 0.0000000e+00 
5.5800000e+00 5.9900000e+00 0.0000000e+00 
5.5800000e+00 6.0100000e+00 0.0000000e+00 
5.5800000e+00 6.0300000e+00 0.0000000e+00 
5.6066667e+00 5.9700000e+00 0.0000000e+00 
5.6066667e+00 5.9900000e+00 0.0000000e+00 
5.6066667e+00 6.0100000e+00 0.0000000e+00 
5.6066667e+00 6.0300000e+00 0.0000000e+00 
5.6333333e+00 5.9700000e+00 0.0000000e+00 
5.6333333e+00 5.9900000e+00 0.0000000e+00 
5.6333333e+00 6.0100000e+00 0.0000000e+00 
5.6333333e+00 6.0300000e+00 0.0000000e+00 
5.6600000e+00 5.9700000e+00 0.0000000e+00 
5.6600000e+00 5.9900000e+00 0.0000000e+00 
5.6600000e+00 6.0100000e+00 0.0000000e+00 
5.6600000e+00 6.0300000e+00 0.0000000e+00 
5.6866667e+00 5.9700000e+00 0.0000000e+00 
5.6866667e+00 5.9900000e+00 0.0000000e+00 
5.6866667e+00 6.0100000e+00 0.0000000e+00 
5.6866667e+00 6.0300000e+00 0.0000000e+00 
5.7133333e+00 5.9700000e+00 0.0000000e+00 
5.7133333e+00 5.9900000e+00 0.0000000e+00 
5.7133333e+00 6.0100000e+00 0.0000000e+00 
5.7133333e+00 6.0300000e+00 0.0000000e+00 
5.7400000e+00 5.9700000e+00 0.0000000e+00 
5.7400000e+00 5.9900000e+00 0.0000000e+00 
5.7400000e+00 6.0100000e+00 0.0000000e+00 
5.7400000e+00 6.0300000e+00 0.0000000e+00 
5.7666667e+00 5.9700000e+00 0.0000000e+00 
5.7666667e+00 5.9900000e+00 0.0000000e+00 
5.7666667e+00 6.0100000e+00 0.0000000e+00 
5.7666667e+00 6.0300000e+00 0.0000000e+00 
5.7933333e+00 5.9700000e+00 0.0000000e+00 
5.7933333e+00 5.9900000e+00 0.0000000e+00 
5.7933333e+00 6.0100000e+00 0.0000000e+00 
5.7933333e+00 6.0300000e+00 0.0000000e+00 
5.8200000e+00 5.9700000e+00 0.0000000e+00 
5.8200000e+00 5.9900000e+00 0.0000000e+00 
5.8200000e+00 6.0100000e+00 0.0000000e+00 
5.8200000e+00 6.0300000e+00 0.0000000e+00 
5.8466667e+00 5.9700000e+00 0.0000000e+00 
5.8466667e+00 5.9900000e+00 0.0000000e+00 
5.8466667e+00 6.0100000e+00 0.0000000e+00 
5.8466667e+00 6.0300000e+00 0.0000000e+00 
5.8733333e+00 5.9700000e+00 0.0000000e+00 
5.8733333e+00 5.9900000e+00 0.0000000e+00 
5.8733333e+00 6.0100000e+00 0.0000000e+00 
5.8733333e+00 6.0300000e+00 0.0000000e+00 
5.9000000e+00 5.9700000e+00 0.0000000e+00 
5.9000000e+00 5.9900000e+00 0.0000000e+00 
5.9000000e+00 6.0100000e+00 0.0000000e+00 
5.9000000e+00 6.0300000e+00 0.0000000e+00 
5.9266667e+00 5.9700000e+00 0.0000000e+00 
5.9266667e+00 5.9900000e+00 0.0000000e+00 
5.9266667e+00 6.0100000e+00 0.0000000e+00 
5.9266667e+00 6.0300000e+00 0.0000000e+00 
5.9533333e+00 5.9700000e+00 0.0000000e+00 
5.9533333e+00 5.9900000e+00 0.0000000e+00 
5.9533333e+00 6.0100000e+00 0.0000000e+00 
5.9533333e+00 6.0300000e+00 0.0000000e+00 
5.9800000e+00 5.9700000e+00 0.0000000e+00 
5.9800000e+00 5.9900000e+00 0.0000000e+00 
5.9800000e+00 6.0100000e+00 0.0000000e+00 
5.9800000e+00 6.0300000e+00 0.0000000e+00 
6.0066667e+00 5.9700000e+00 0.0000000e+00 
6.0066667e+00 5.9900000e+00 0.0000000e+00 
6.0066667e+00 6.0100000e+00 0.0000000e+00 
6.0066667e+00 6.0300000e+00 0.0000000e+00 
6.0333333e+00 5.9700000e+00 0.0000000e+00 
6.0333333e+00 5.9900000e+00 0.0000000e+00 
6.0333333e+00 6.0100000e+00 0.0000000e+00 
6.0333333e+00 6.0300000e+00 0.0000000e+00 
6.0600000e+00 5.9700000e+00 0.0000000e+00 
6.0600000e+00 5.9900000e+00 0.0000000e+00 
6.0600000e+00 6.0100000e+00 0.0000000e+00 
6.0600000e+00 6.0300000e+00 0.0000000e+00 
6.0866667e+00 5.9700000e+00 0.0000000e+00 
6.0866667e+00 5.9900000e+00 0.0000000e+00 
6.0866667e+00 6.0100000e+00 0.0000000e+00 
6.0866667e+00 6.0300000e+00 0.0000000e+00 
6.1133333e+00 5.9700000e+00 0.0000000e+00 
6.1133333e+00 5.9900000e+00 0.0000000e+00 
6.1133333e+00 6.0100000e+00 0.0000000e+00 
6.1133333e+00 6.0300000e+00 0.0000000e+00 
6.1400000e+00 5.9700000e+00 0.0000000e+00 
6.1400000e+00 5.9900000e+00 0.0000000e+00 
6.1400000e+00 6.0100000e+00 0.0000000e+00 
6.1400000e+00 6.0300000e+00 0.0000000e+00 
6.1666667e+00 5.9700000e+00 0.0000000e+00 
6.1666667e+00 5.9900000e+00 0.0000000e+00 
6.1666667e+00 6.0100000e+00 0.0000000e+00 
6.1666667e+00 6.0300000e+00 0.0000000e+00 
6.1933333e+00 5.9700000e+00 0.0000000e+00 
6.1933333e+00 5.9900000e+00 0.0000000e+00 
6.1933333e+00 6.0100000e+00 0.0000000e+00 
6.1933333e+00 6.0300000e+00 0.0000000e+00 
6.2200000e+00 5.9700000e+00 0.0000000e+00 
6.2200000e+00 5.9900000e+00 0.0000000e+00 
6.2200000e+00 6.0100000e+00 0.0000000e+00 
6.2200000e+00 6.0300000e+00 0.0000000e+00 
6.2466667e+00 5.9700000e+00 0.0000000e+00 
6.2466667e+00 5.9900000e+00 0.0000000e+00 
6.2466667e+00 6.0100000e+00 0.0000000e+00 
6.2466667e+00 6.0300000e+00 0.0000000e+00 
6.2733333e+00 5.9700000e+00 0.0000000e+00 
6.2733333e+00 5.9900000e+00 0.0000000e+00 
6.2733333e+00 6.0100000e+00 0.0000000e+00 
6.2733333e+00 6.0300000e+00 0.0000000e+00 
6.3000000e+00 5.9700000e+00 0.0000000e+00 
6.3000000e+00 5.9900000e+00 0.0000000e+00 
6.3000000e+00 6.0100000e+00 0.0000000e+00 
6.3000000e+00 6.0300000e+00 0.0000000e+00 
6.3266667e+00 5.9700000e+00 0.0000000e+00 
6.3266667e+00 5.9900000e+00 0.0000000e+00 
6.3266667e+00 6.0100000e+00 0.0000000e+00 
6.3266667e+00 6.0300000e+00 0.0000000e+00 
6.3533333e+00 5.9700000e+00 0.0000000e+00 
6.3533333e+00 5.9900000e+00 0.0000000e+00 
6.3533333e+00 6.0100000e+00 0.0000000e+00 
6.3533333e+00 6.0300000e+00 0.0000000e+00 
6.3800000e+00 5.9700000e+00 0.0000000e+00 
6.3800000e+00 5.9900000e+00 0.0000000e+00 
6.3800000e+00 6.0100000e+00 0.0000000e+00 
6.3800000e+00 6.0300000e+00 0.0000000e+00 
6.4066667e+00 5.9700000e+00 0.0000000e+00 
6.4066667e+00 5.9900000e+00 0.0000000e+00 
6.4066667e+00 6.0100000e+00 0.0000000e+00 
6.4066667e+00 6.0300000e+00 0.0000000e+00 
6.4333333e+00 5.9700000e+00 0.0000000e+00 
6.4333333e+00 5.9900000e+00 0.0000000e+00 
6.4333333e+00 6.0100000e+00 0.0000000e+00 
6.4333333e+00 6.0300000e+00 0.0000000e+00 
6.4600000e+00 5.9700000e+00 0.0000000e+00 
6.4600000e+00 5.9900000e+00 0.0000000e+00 
6.4600000e+00 6.0100000e+00 0.0000000e+00 
6.4600000e+00 6.0300000e+00 0.0000000e+00 
6.4866667e+00 5.9700000e+00 0.0000000e+00 
6.4866667e+00 5.9900000e+00 0.0000000e+00 
6.4866667e+00 6.0100000e+00 0.0000000e+00 
6.4866667e+00 6.0300000e+00 0.0000000e+00 
6.5133333e+00 5.9700000e+00 0.0000000e+00 
6.5133333e+00 5.9900000e+00 0.0000000e+00 
6.5133333e+00 6.0100000e+00 0.0000000e+00 
6.5133333e+00 6.0300000e+00 0.0000000e+00 
6.5400000e+00 5.9700000e+00 0.0000000e+00 
6.5400000e+00 5.9900000e+00 0.0000000e+00 
6.5400000e+00 6.0100000e+00 0.0000000e+00 
6.5400000e+00 6.0300000e+00 0.0000000e+00 
6.5666667e+00 5.9700000e+00 0.0000000e+00 
6.5666667e+00 5.9900000e+00 0.0000000e+00 
6.5666667e+00 6.0100000e+00 0.0000000e+00 
6.5666667e+00 6.0300000e+00 0.0000000e+00 
6.5933333e+00 5.9700000e+00 0.0000000e+00 
6.5933333e+00 5.9900000e+00 0.0000000e+00 
6.5933333e+00 6.0100000e+00 0.0000000e+00 
6.5933333e+00 6.0300000e+00 0.0000000e+00 
6.6200000e+00 5.9700000e+00 0.0000000e+00 
6.6200000e+00 5.9900000e+00 0.0000000e+00 
6.6200000e+00 6.0100000e+00 0.0000000e+00 
6.6200000e+00 6.0300000e+00 0.0000000e+00 
6.6466667e+00 5.9700000e+00 0.0000000e+00 
6.6466667e+00 5.9900000e+00 0.0000000e+00 
6.6466667e+00 6.0100000e+00 0.0000000e+00 
6.6466667e+00 6.0300000e+00 0.0000000e+00 
6.6733333e+00 5.9700000e+00 0.0000000e+00 
6.6733333e+00 5.9900000e+00 0.0000000e+00 
6.6733333e+00 6.0100000e+00 0.0000000e+00 
6.6733333e+00 6.0300000e+00 0.0000000e+00 
6.7000000e+00 5.9700000e+00 0.0000000e+00 
6.7000000e+00 5.9900000e+00 0.0000000e+00 
6.7000000e+00 6.0100000e+00 0.0000000e+00 
6.7000000e+00 6.0300000e+00 0.0000000e+00 
6.7266667e+00 5.9700000e+00 0.0000000e+00 
6.7266667e+00 5.9900000e+00 0.0000000e+00 
6.7266667e+00 6.0100000e+00 0.0000000e+00 
6.7266667e+00 6.0300000e+00 0.0000000e+00 
6.7533333e+00 5.9700000e+00 0.0000000e+00 
6.7533333e+00 5.9900000e+00 0.0000000e+00 
6.7533333e+00 6.0100000e+00 0.0000000e+00 
6.7533333e+00 6.0300000e+00 0.0000000e+00 
6.7800000e+00 5.9700000e+00 0.0000000e+00 
6.7800000e+00 5.9900000e+00 0.0000000e+00 
6.7800000e+00 6.0100000e+00 0.0000000e+00 
6.7800000e+00 6.0300000e+00 0.0000000e+00 
6.8066667e+00 5.9700000e+00 0.0000000e+00 
6.8066667e+00 5.9900000e+00 0.0000000e+00 
6.8066667e+00 6.0100000e+00 0.0000000e+00 
6.8066667e+00 6.0300000e+00 0.0000000e+00 
6.8333333e+00 5.9700000e+00 0.0000000e+00 
6.8333333e+00 5.9900000e+00 0.0000000e+00 
6.8333333e+00 6.0100000e+00 0.0000000e+00 
6.8333333e+00 6.0300000e+00 0.0000000e+00 
6.8600000e+00 5.9700000e+00 0.0000000e+00 
6.8600000e+00 5.9900000e+00 0.0000000e+00 
6.8600000e+00 6.0100000e+00 0.0000000e+00 
6.8600000e+00 6.0300000e+00 0.0000000e+00 
6.8866667e+00 5.9700000e+00 0.0000000e+00 
6.8866667e+00 5.9900000e+00 0.0000000e+00 
6.8866667e+00 6.0100000e+00 0.0000000e+00 
6.8866667e+00 6.0300000e+00 0.0000000e+00 
6.9133333e+00 5.9700000e+00 0.0000000e+00 
6.9133333e+00 5.9900000e+00 0.0000000e+00 
6.9133333e+00 6.0100000e+00 0.0000000e+00 
6.9133333e+00 6.0300000e+00 0.0000000e+00 
6.9400000e+00 5.9700000e+00 0.0000000e+00 
6.9400000e+00 5.9900000e+00 0.0000000e+00 
6.9400000e+00 6.0100000e+00 0.0000000e+00 
6.9400000e+00 6.0300000e+00 0.0000000e+00 
6.9666667e+00 5.9700000e+00 0.0000000e+00 
6.9666667e+00 5.9900000e+00 0.0000000e+00 
6.9666667e+00 6.0100000e+00 0.0000000e+00 
6.9666667e+00 6.0300000e+00 0.0000000e+00 
6.9933333e+00 5.9700000e+00 0.0000000e+00 
6.9933333e+00 5.9900000e+00 0.0000000e+00 
6.9933333e+00 6.0100000e+00 0.0000000e+00 
6.9933333e+00 6.0300000e+00 0.0000000e+00 
7.0200000e+00 5.9700000e+00 0.0000000e+00 
7.0200000e+00 5.9900000e+00 0.0000000e+00 
[...]
POINT_DATA 604
FIELD FieldData 2
DISPLACEMENT 3 604  float
0.0000000e+00 0.0000000e+00 0.0000000e+00 
0.0000000e+00 0.0000000e+00 0.0000000e+00 
-1.4716490e-08 -9.7540194e-09 0.0000000e+00 
-4.9557139e-09 -6.3250910e-09 0.0000000e+00 
0.0000000e+00 0.0000000e+00 0.0000000e+00 
4.8681109e-09 -6.7455613e-09 0.0000000e+00 
-2.9665175e-08 -2.5593689e-08 0.0000000e+00 
-9.0166834e-09 -2.6813718e-08 0.0000000e+00 
0.0000000e+00 0.0000000e+00 0.0000000e+00 
1.6536902e-08 -9.8064998e-09 0.0000000e+00 
1.1630800e-08 -2.9583739e-08 0.0000000e+00 
-4.3670709e-08 -6.5763909e-08 0.0000000e+00 
3.2600104e-08 -3.6035425e-08 0.0000000e+00 
-1.2814717e-08 -6.2735822e-08 0.0000000e+00 
1.7722452e-08 -6.3625026e-08 0.0000000e+00 
4.8484700e-08 -6.5728417e-08 0.0000000e+00 
-5.6952977e-08 -1.0858864e-07 0.0000000e+00 
-1.6552110e-08 -1.0995557e-07 0.0000000e+00 
2.3561196e-08 -1.1243761e-07 0.0000000e+00 
6.3893865e-08 -1.1873778e-07 0.0000000e+00 
-6.9539642e-08 -1.7416882e-07 0.0000000e+00 
-2.0181971e-08 -1.7138013e-07 0.0000000e+00 
2.9112995e-08 -1.7199592e-07 0.0000000e+00 
7.8845379e-08 -1.7392242e-07 0.0000000e+00 
-8.1263960e-08 -2.4131513e-07 0.0000000e+00 
-2.3760911e-08 -2.4258499e-07 0.0000000e+00 
3.4336786e-08 -2.4573508e-07 0.0000000e+00 
9.3523781e-08 -2.5153991e-07 0.0000000e+00 
-9.3180330e-08 -3.2517523e-07 0.0000000e+00 
-2.5572972e-08 -3.2652427e-07 0.0000000e+00 
4.0964289e-08 -3.2966852e-07 0.0000000e+00 
1.0689805e-07 -3.3536245e-07 0.0000000e+00 
-1.0383114e-07 -4.2520608e-07 0.0000000e+00 
-2.8793999e-08 -4.2270638e-07 0.0000000e+00 
4.5819100e-08 -4.2331707e-07 0.0000000e+00 
1.2046872e-07 -4.2495963e-07 0.0000000e+00 
-1.1425166e-07 -5.2541988e-07 0.0000000e+00 
-3.1712111e-08 -5.2722532e-07 0.0000000e+00 
5.0630212e-08 -5.2968085e-07 0.0000000e+00 
1.3322578e-07 -5.3546872e-07 0.0000000e+00 
-1.2431299e-07 -6.4589514e-07 0.0000000e+00 
-3.4366754e-08 -6.4351118e-07 0.0000000e+00 
5.5364494e-08 -6.4438517e-07 0.0000000e+00 
1.4531943e-07 -6.4578572e-07 0.0000000e+00 
-1.3386575e-07 -7.6582872e-07 0.0000000e+00 
-3.6854801e-08 -7.6783291e-07 0.0000000e+00 
5.9932551e-08 -7.7028907e-07 0.0000000e+00 
1.5692633e-07 -7.7592670e-07 0.0000000e+00 
-1.4291405e-07 -9.0511958e-07 0.0000000e+00 
-3.9180807e-08 -9.0290452e-07 0.0000000e+00 
6.4338603e-08 -9.0377749e-07 0.0000000e+00 
1.6806153e-07 -9.0500620e-07 0.0000000e+00 
-1.5150120e-07 -1.0429886e-06 0.0000000e+00 
-4.1345316e-08 -1.0451494e-06 0.0000000e+00 
6.8588863e-08 -1.0475973e-06 0.0000000e+00 
1.7871086e-07 -1.0530588e-06 0.0000000e+00 
-1.5959479e-07 -1.1993393e-06 0.0000000e+00 
-4.3350766e-08 -1.1972914e-06 0.0000000e+00 
7.2690068e-08 -1.1981661e-06 0.0000000e+00 
1.8892409e-07 -1.1992379e-06 0.0000000e+00 
-1.6726148e-07 -1.3534757e-06 0.0000000e+00 
-4.5195204e-08 -1.3557900e-06 0.0000000e+00 
7.6650370e-08 -1.3582364e-06 0.0000000e+00 
1.9866466e-07 -1.3635348e-06 0.0000000e+00 
-1.7443742e-07 -1.5252659e-06 0.0000000e+00 
-4.6887023e-08 -1.5233791e-06 0.0000000e+00 
8.0470729e-08 -1.5242580e-06 0.0000000e+00 
2.0801196e-07 -1.5251829e-06 0.0000000e+00 
-1.8122079e-07 -1.6940774e-06 0.0000000e+00 
-4.8417016e-08 -1.6965443e-06 0.0000000e+00 
8.4165846e-08 -1.6989972e-06 0.0000000e+00 
2.1689794e-07 -1.7041468e-06 0.0000000e+00 
-1.8751870e-07 -1.8797664e-06 0.0000000e+00 
-4.9796873e-08 -1.8780392e-06 0.0000000e+00 
8.7733288e-08 -1.8789261e-06 0.0000000e+00 
2.2542915e-07 -1.8797184e-06 0.0000000e+00 
-1.9347106e-07 -2.0617865e-06 0.0000000e+00 
-5.1015907e-08 -2.0643712e-06 0.0000000e+00 
9.1188400e-08 -2.0668258e-06 0.0000000e+00 
2.3349425e-07 -2.0718061e-06 0.0000000e+00 
-1.9878212e-07 -2.2599454e-06 0.0000000e+00 
-5.2184038e-08 -2.2584328e-06 0.0000000e+00 
9.4430129e-08 -2.2590688e-06 0.0000000e+00 
2.4140087e-07 -2.2597976e-06 0.0000000e+00 
-2.0347757e-07 -2.4535645e-06 0.0000000e+00 
-5.3315656e-08 -2.4560221e-06 0.0000000e+00 
9.7446796e-08 -2.4591787e-06 0.0000000e+00 
2.4914892e-07 -2.4637562e-06 0.0000000e+00 
-2.0844035e-07 -2.6576632e-06 0.0000000e+00 
-5.2724139e-08 -2.6602183e-06 0.0000000e+00 
1.0193840e-07 -2.6633710e-06 0.0000000e+00 
2.5586656e-07 -2.6679137e-06 0.0000000e+00 
-2.1220835e-07 -2.8719668e-06 0.0000000e+00 
-5.3550132e-08 -2.8706677e-06 0.0000000e+00 
1.0476340e-07 -2.8713376e-06 0.0000000e+00 
2.6304707e-07 -2.8718890e-06 0.0000000e+00 
-2.1598762e-07 -3.0806417e-06 0.0000000e+00 
-5.4069205e-08 -3.0836496e-06 0.0000000e+00 
1.0765729e-07 -3.0861787e-06 0.0000000e+00 
2.6950199e-07 -3.0909245e-06 0.0000000e+00 
-2.1941993e-07 -3.3039592e-06 0.0000000e+00 
-5.4370116e-08 -3.3027304e-06 0.0000000e+00 
1.1053534e-07 -3.3036842e-06 0.0000000e+00 
2.7560009e-07 -3.3040600e-06 0.0000000e+00 
-2.2257214e-07 -3.5210746e-06 0.0000000e+00 
-5.4497585e-08 -3.5242914e-06 0.0000000e+00 
1.1335632e-07 -3.5268671e-06 0.0000000e+00 
2.8128873e-07 -3.5315795e-06 0.0000000e+00 
-2.2522717e-07 -3.7523359e-06 0.0000000e+00 
-5.4503739e-08 -3.7512312e-06 0.0000000e+00 
1.1607260e-07 -3.7522090e-06 0.0000000e+00 
2.8679577e-07 -3.7524716e-06 0.0000000e+00 
-2.2763250e-07 -3.9766360e-06 0.0000000e+00 
-5.4338206e-08 -3.9800286e-06 0.0000000e+00 
1.1873802e-07 -3.9826452e-06 0.0000000e+00 
2.9188520e-07 -3.9872995e-06 0.0000000e+00 
-2.2954977e-07 -4.2146074e-06 0.0000000e+00 
-5.4051677e-08 -4.2136276e-06 0.0000000e+00 
1.2130571e-07 -4.2146319e-06 0.0000000e+00 
2.9680699e-07 -4.2147898e-06 0.0000000e+00 
-2.3123075e-07 -4.4449128e-06 0.0000000e+00 
-5.3593558e-08 -4.4484833e-06 0.0000000e+00 
1.2382992e-07 -4.4511477e-06 0.0000000e+00 
3.0131902e-07 -4.4557541e-06 0.0000000e+00 
-2.3243088e-07 -4.6884464e-06 0.0000000e+00 
-5.3018642e-08 -4.6875878e-06 0.0000000e+00 
1.2625928e-07 -4.6886197e-06 0.0000000e+00 
3.0567821e-07 -4.6886766e-06 0.0000000e+00 
-2.3340628e-07 -4.9236121e-06 0.0000000e+00 
-5.2273454e-08 -4.9273615e-06 0.0000000e+00 
1.2865116e-07 -4.9300798e-06 0.0000000e+00 
3.0963724e-07 -4.9346469e-06 0.0000000e+00 
-2.3391696e-07 -5.1715916e-06 0.0000000e+00 
-5.1411904e-08 -5.1708551e-06 0.0000000e+00 
1.3095490e-07 -5.1719158e-06 0.0000000e+00 
3.1344924e-07 -5.1718801e-06 0.0000000e+00 
-2.3422827e-07 -5.4105664e-06 0.0000000e+00 
-5.0386473e-08 -5.4144533e-06 0.0000000e+00 
1.3322211e-07 -5.4172147e-06 0.0000000e+00 
3.1685734e-07 -5.4217089e-06 0.0000000e+00 
-2.3391918e-07 -5.6619470e-06 0.0000000e+00 
-4.9352508e-08 -5.6613947e-06 0.0000000e+00 
1.3530081e-07 -5.6621953e-06 0.0000000e+00 
3.2029639e-07 -5.6621372e-06 0.0000000e+00 
-2.3308861e-07 -5.9034818e-06 0.0000000e+00 
-4.8298995e-08 -5.9072305e-06 0.0000000e+00 
1.3720517e-07 -5.9107994e-06 0.0000000e+00 
3.2367613e-07 -5.9149515e-06 0.0000000e+00 
-2.3265591e-07 -6.1515595e-06 0.0000000e+00 
-4.5395788e-08 -6.1554382e-06 0.0000000e+00 
1.4077465e-07 -6.1590211e-06 0.0000000e+00 
3.2609173e-07 -6.1632066e-06 0.0000000e+00 
-2.3104796e-07 -6.4061606e-06 0.0000000e+00 
-4.4084531e-08 -6.4057622e-06 0.0000000e+00 
1.4256670e-07 -6.4066223e-06 0.0000000e+00 
3.2914061e-07 -6.4064264e-06 0.0000000e+00 
-2.2956758e-07 -6.6498525e-06 0.0000000e+00 
-4.2474870e-08 -6.6542113e-06 0.0000000e+00 
1.4448166e-07 -6.6571357e-06 0.0000000e+00 
3.3152950e-07 -6.6616177e-06 0.0000000e+00 
-2.2785876e-07 -6.9052191e-06 0.0000000e+00 
-4.0675017e-08 -6.9048466e-06 0.0000000e+00 
1.4641376e-07 -6.9060190e-06 0.0000000e+00 
3.3363079e-07 -6.9056674e-06 0.0000000e+00 
-2.2594345e-07 -7.1491961e-06 0.0000000e+00 
-3.8734113e-08 -7.1537572e-06 0.0000000e+00 
1.4831914e-07 -7.1567426e-06 0.0000000e+00 
3.3543211e-07 -7.1612509e-06 0.0000000e+00 
-2.2366202e-07 -7.4045873e-06 0.0000000e+00 
-3.6710343e-08 -7.4042976e-06 0.0000000e+00 
1.5014331e-07 -7.4054940e-06 0.0000000e+00 
3.3711005e-07 -7.4050531e-06 0.0000000e+00 
-2.2119569e-07 -7.6479323e-06 0.0000000e+00 
-3.4558156e-08 -7.6526471e-06 0.0000000e+00 
1.5193728e-07 -7.6556784e-06 0.0000000e+00 
3.3849394e-07 -7.6601742e-06 0.0000000e+00 
-2.1839880e-07 -7.9024318e-06 0.0000000e+00 
-3.2325538e-08 -7.9022240e-06 0.0000000e+00 
1.5365709e-07 -7.9034428e-06 0.0000000e+00 
3.3974721e-07 -7.9029217e-06 0.0000000e+00 
-2.1542295e-07 -8.1443175e-06 0.0000000e+00 
-2.9975167e-08 -8.1491756e-06 0.0000000e+00 
1.5534586e-07 -8.1522517e-06 0.0000000e+00 
3.4073004e-07 -8.1567348e-06 0.0000000e+00 
-2.1214909e-07 -8.3971115e-06 0.0000000e+00 
-2.7551227e-08 -8.3969796e-06 0.0000000e+00 
1.5696379e-07 -8.3982176e-06 0.0000000e+00 
3.4158009e-07 -8.3976208e-06 0.0000000e+00 
-2.0870284e-07 -8.6367594e-06 0.0000000e+00 
-2.5021097e-08 -8.6417489e-06 0.0000000e+00 
1.5854963e-07 -8.6448684e-06 0.0000000e+00 
3.4218492e-07 -8.6493381e-06 0.0000000e+00 
-2.0499926e-07 -8.8870824e-06 0.0000000e+00 
-2.2420157e-08 -8.8870253e-06 0.0000000e+00 
1.6007283e-07 -8.8882801e-06 0.0000000e+00 
3.4264883e-07 -8.8876181e-06 0.0000000e+00 
-2.0114787e-07 -9.1238316e-06 0.0000000e+00 
-1.9729176e-08 -9.1288945e-06 0.0000000e+00 
1.6155894e-07 -9.1320384e-06 0.0000000e+00 
3.4287694e-07 -9.1364484e-06 0.0000000e+00 
-1.9688972e-07 -9.3710163e-06 0.0000000e+00 
-1.7088233e-08 -9.3710988e-06 0.0000000e+00 
1.6287340e-07 -9.3720481e-06 0.0000000e+00 
3.4314791e-07 -9.3713981e-06 0.0000000e+00 
-1.9212013e-07 -9.6040125e-06 0.0000000e+00 
-1.4530319e-08 -9.6088331e-06 0.0000000e+00 
1.6398791e-07 -9.6128194e-06 0.0000000e+00 
3.4358297e-07 -9.6168638e-06 0.0000000e+00 
-1.8804741e-07 -9.8411708e-06 0.0000000e+00 
-1.0016208e-08 -9.8460587e-06 0.0000000e+00 
1.6695661e-07 -9.8500609e-06 0.0000000e+00 
3.4299411e-07 -9.8541193e-06 0.0000000e+00 
-1.8294926e-07 -1.0082499e-05 0.0000000e+00 
-7.3475415e-09 -1.0082652e-05 0.0000000e+00 
1.6797655e-07 -1.0083621e-05 0.0000000e+00 
3.4314210e-07 -1.0082879e-05 0.0000000e+00 
-1.7806095e-07 -1.0309033e-05 0.0000000e+00 
-4.4672670e-09 -1.0314341e-05 0.0000000e+00 
1.6912017e-07 -1.0317556e-05 0.0000000e+00 
3.4281101e-07 -1.0321942e-05 0.0000000e+00 
-1.7324263e-07 -1.0545611e-05 0.0000000e+00 
-1.4422220e-09 -1.0545723e-05 0.0000000e+00 
1.7032541e-07 -1.0547012e-05 0.0000000e+00 
3.4216114e-07 -1.0546142e-05 0.0000000e+00 
-1.6827526e-07 -1.0767269e-05 0.0000000e+00 
1.6215772e-09 -1.0772681e-05 0.0000000e+00 
1.7149300e-07 -1.0775918e-05 0.0000000e+00 
3.4143136e-07 -1.0780330e-05 0.0000000e+00 
-1.6323111e-07 -1.0998857e-05 0.0000000e+00 
4.7096454e-09 -1.0998992e-05 0.0000000e+00 
1.7261525e-07 -1.1000280e-05 0.0000000e+00 
3.4056886e-07 -1.0999360e-05 0.0000000e+00 
-1.5806647e-07 -1.1215222e-05 0.0000000e+00 
7.8194438e-09 -1.1220680e-05 0.0000000e+00 
1.7369591e-07 -1.1223919e-05 0.0000000e+00 
3.3963802e-07 -1.1228310e-05 0.0000000e+00 
-1.5286735e-07 -1.1441399e-05 0.0000000e+00 
1.0950036e-08 -1.1441556e-05 0.0000000e+00 
1.7474104e-07 -1.1442841e-05 0.0000000e+00 
3.3857134e-07 -1.1441883e-05 0.0000000e+00 
-1.4755946e-07 -1.1652167e-05 0.0000000e+00 
1.4089520e-08 -1.1657655e-05 0.0000000e+00 
1.7574470e-07 -1.1660893e-05 0.0000000e+00 
3.3746419e-07 -1.1665261e-05 0.0000000e+00 
-1.4225177e-07 -1.1872642e-05 0.0000000e+00 
1.7242112e-08 -1.1872813e-05 0.0000000e+00 
1.7671815e-07 -1.1874092e-05 0.0000000e+00 
3.3622501e-07 -1.1873102e-05 0.0000000e+00 
-1.3684715e-07 -1.2077570e-05 0.0000000e+00 
2.0391399e-08 -1.2083073e-05 0.0000000e+00 
1.7765053e-07 -1.2086309e-05 0.0000000e+00 
3.3497199e-07 -1.2090652e-05 0.0000000e+00 
-1.3148166e-07 -1.2292114e-05 0.0000000e+00 
2.3550982e-08 -1.2292298e-05 0.0000000e+00 
1.7856244e-07 -1.2293569e-05 0.0000000e+00 
3.3358513e-07 -1.2292560e-05 0.0000000e+00 
-1.2604875e-07 -1.2491088e-05 0.0000000e+00 
2.6692262e-08 -1.2496546e-05 0.0000000e+00 
1.7943032e-07 -1.2499761e-05 0.0000000e+00 
3.3219173e-07 -1.2504032e-05 0.0000000e+00 
-1.2049813e-07 -1.2699581e-05 0.0000000e+00 
2.9722112e-08 -1.2699844e-05 0.0000000e+00 
1.8016806e-07 -1.2700779e-05 0.0000000e+00 
3.3085645e-07 -1.2699828e-05 0.0000000e+00 
-1.1450840e-07 -1.2892295e-05 0.0000000e+00 
3.2556121e-08 -1.2897390e-05 0.0000000e+00 
1.8069430e-07 -1.2901401e-05 0.0000000e+00 
3.2992105e-07 -1.2905291e-05 0.0000000e+00 
-1.0948354e-07 -1.3088298e-05 0.0000000e+00 
3.7302851e-08 -1.3093371e-05 0.0000000e+00 
1.8313087e-07 -1.3097388e-05 0.0000000e+00 
3.2799464e-07 -1.3101253e-05 0.0000000e+00 
-1.0365251e-07 -1.3287561e-05 0.0000000e+00 
4.0086290e-08 -1.3287806e-05 0.0000000e+00 
1.8360033e-07 -1.3288711e-05 0.0000000e+00 
3.2687960e-07 -1.3287740e-05 0.0000000e+00 
-9.8118626e-08 -1.3471082e-05 0.0000000e+00 
4.2983962e-08 -1.3476476e-05 0.0000000e+00 
1.8419172e-07 -1.3479630e-05 0.0000000e+00 
3.2549034e-07 -1.3483825e-05 0.0000000e+00 
-9.2912875e-08 -1.3664014e-05 0.0000000e+00 
4.5975423e-08 -1.3664160e-05 0.0000000e+00 
1.8488869e-07 -1.3665372e-05 0.0000000e+00 
3.2380537e-07 -1.3664314e-05 0.0000000e+00 
-8.7640509e-08 -1.3841456e-05 0.0000000e+00 
4.8915543e-08 -1.3846855e-05 0.0000000e+00 
1.8554900e-07 -1.3849994e-05 0.0000000e+00 
3.2223534e-07 -1.3854209e-05 0.0000000e+00 
-8.2525449e-08 -1.4028330e-05 0.0000000e+00 
5.1829456e-08 -1.4028448e-05 0.0000000e+00 
1.8620287e-07 -1.4029640e-05 0.0000000e+00 
3.2056371e-07 -1.4028574e-05 0.0000000e+00 
-7.7368864e-08 -1.4199756e-05 0.0000000e+00 
5.4682028e-08 -1.4205107e-05 0.0000000e+00 
1.8681730e-07 -1.4208215e-05 0.0000000e+00 
3.1900363e-07 -1.4212405e-05 0.0000000e+00 
-7.2391627e-08 -1.4380623e-05 0.0000000e+00 
5.7508933e-08 -1.4380715e-05 0.0000000e+00 
1.8743246e-07 -1.4381887e-05 0.0000000e+00 
3.1733982e-07 -1.4380822e-05 0.0000000e+00 
-6.7379620e-08 -1.4546171e-05 0.0000000e+00 
6.0269606e-08 -1.4551468e-05 0.0000000e+00 
1.8800944e-07 -1.4554545e-05 0.0000000e+00 
3.1579912e-07 -1.4558711e-05 0.0000000e+00 
-6.2560135e-08 -1.4721175e-05 0.0000000e+00 
6.3001220e-08 -1.4721238e-05 0.0000000e+00 
1.8858933e-07 -1.4722389e-05 0.0000000e+00 
3.1415840e-07 -1.4721328e-05 0.0000000e+00 
-5.7711536e-08 -1.4881009e-05 0.0000000e+00 
6.5662604e-08 -1.4886247e-05 0.0000000e+00 
1.8913219e-07 -1.4889295e-05 0.0000000e+00 
3.1265029e-07 -1.4893436e-05 0.0000000e+00 
-5.3072234e-08 -1.5050319e-05 0.0000000e+00 
6.8296466e-08 -1.5050356e-05 0.0000000e+00 
1.8968409e-07 -1.5051485e-05 0.0000000e+00 
3.1103942e-07 -1.5050438e-05 0.0000000e+00 
-4.8425703e-08 -1.5204685e-05 0.0000000e+00 
7.0853606e-08 -1.5209816e-05 0.0000000e+00 
1.9019662e-07 -1.5212819e-05 0.0000000e+00 
3.0955157e-07 -1.5216892e-05 0.0000000e+00 
-4.3817664e-08 -1.5368533e-05 0.0000000e+00 
7.3270867e-08 -1.5368612e-05 0.0000000e+00 
1.9060952e-07 -1.5369407e-05 0.0000000e+00 
3.0814275e-07 -1.5368443e-05 0.0000000e+00 
-3.8836237e-08 -1.5517457e-05 0.0000000e+00 
7.5446570e-08 -1.5522183e-05 0.0000000e+00 
1.9082104e-07 -1.5525926e-05 0.0000000e+00 
3.0723267e-07 -1.5529635e-05 0.0000000e+00 
-3.4901066e-08 -1.5669963e-05 0.0000000e+00 
7.9425661e-08 -1.5674631e-05 0.0000000e+00 
1.9288043e-07 -1.5678378e-05 0.0000000e+00 
3.0540251e-07 -1.5682051e-05 0.0000000e+00 
-3.0289282e-08 -1.5826022e-05 0.0000000e+00 
8.1481135e-08 -1.5826044e-05 0.0000000e+00 
1.9305942e-07 -1.5826792e-05 0.0000000e+00 
3.0438394e-07 -1.5825840e-05 0.0000000e+00 
-2.5997315e-08 -1.5967474e-05 0.0000000e+00 
8.3608108e-08 -1.5972412e-05 0.0000000e+00 
1.9335609e-07 -1.5975309e-05 0.0000000e+00 
3.0318536e-07 -1.5979301e-05 0.0000000e+00 
-2.2114987e-08 -1.6118469e-05 0.0000000e+00 
8.5804960e-08 -1.6118374e-05 0.0000000e+00 
1.9376970e-07 -1.6119410e-05 0.0000000e+00 
3.0171621e-07 -1.6118390e-05 0.0000000e+00 
-1.8197540e-08 -1.6255229e-05 0.0000000e+00 
8.7921909e-08 -1.6260141e-05 0.0000000e+00 
1.9415014e-07 -1.6263013e-05 0.0000000e+00 
3.0042492e-07 -1.6267028e-05 0.0000000e+00 
-1.4508144e-08 -1.6401611e-05 0.0000000e+00 
8.9996898e-08 -1.6401471e-05 0.0000000e+00 
1.9453640e-07 -1.6402483e-05 0.0000000e+00 
2.9904684e-07 -1.6401468e-05 0.0000000e+00 
-1.0800955e-08 -1.6533901e-05 0.0000000e+00 
9.1988051e-08 -1.6538742e-05 0.0000000e+00 
1.9488604e-07 -1.6541574e-05 0.0000000e+00 
2.9783046e-07 -1.6545568e-05 0.0000000e+00 
-7.3282029e-09 -1.6675866e-05 0.0000000e+00 
9.3941184e-08 -1.6675687e-05 0.0000000e+00 
1.9524559e-07 -1.6676675e-05 0.0000000e+00 
2.9652161e-07 -1.6675672e-05 0.0000000e+00 
-3.8379860e-09 -1.6803945e-05 0.0000000e+00 
9.5810926e-08 -1.6808714e-05 0.0000000e+00 
1.9556900e-07 -1.6811510e-05 0.0000000e+00 
2.9537392e-07 -1.6815482e-05 0.0000000e+00 
-5.8163571e-10 -1.6941748e-05 0.0000000e+00 
9.7642467e-08 -1.6941531e-05 0.0000000e+00 
1.9590187e-07 -1.6942495e-05 0.0000000e+00 
2.9413378e-07 -1.6941503e-05 0.0000000e+00 
2.6923489e-09 -1.7065869e-05 0.0000000e+00 
9.9391306e-08 -1.7070566e-05 0.0000000e+00 
1.9619893e-07 -1.7073330e-05 0.0000000e+00 
2.9305364e-07 -1.7077279e-05 0.0000000e+00 
5.7281201e-09 -1.7199758e-05 0.0000000e+00 
1.0110612e-07 -1.7199509e-05 0.0000000e+00 
1.9650903e-07 -1.7200449e-05 0.0000000e+00 
2.9187507e-07 -1.7199474e-05 0.0000000e+00 
8.7657319e-09 -1.7320226e-05 0.0000000e+00 
1.0273598e-07 -1.7324811e-05 0.0000000e+00 
1.9678037e-07 -1.7327528e-05 0.0000000e+00 
2.9083842e-07 -1.7331413e-05 0.0000000e+00 
1.1736927e-08 -1.7450486e-05 0.0000000e+00 
1.0422766e-07 -1.7450270e-05 0.0000000e+00 
1.9695973e-07 -1.7450891e-05 0.0000000e+00 
2.8987265e-07 -1.7449998e-05 0.0000000e+00 
1.5062186e-08 -1.7567373e-05 0.0000000e+00 
1.0548076e-07 -1.7571566e-05 0.0000000e+00 
1.9694565e-07 -1.7574980e-05 0.0000000e+00 
2.8939799e-07 -1.7578520e-05 0.0000000e+00 
1.7376760e-08 -1.7688464e-05 0.0000000e+00 
1.0843977e-07 -1.7692598e-05 0.0000000e+00 
1.9868280e-07 -1.7696016e-05 0.0000000e+00 
2.8804679e-07 -1.7699521e-05 0.0000000e+00 
2.0322088e-08 -1.7813731e-05 0.0000000e+00 
1.0956949e-07 -1.7813456e-05 0.0000000e+00 
1.9863485e-07 -1.7814029e-05 0.0000000e+00 
2.8745981e-07 -1.7813147e-05 0.0000000e+00 
2.2970766e-08 -1.7925946e-05 0.0000000e+00 
1.1076286e-07 -1.7930334e-05 0.0000000e+00 
1.9869445e-07 -1.7932943e-05 0.0000000e+00 
2.8670857e-07 -1.7936748e-05 0.0000000e+00 
2.5222288e-08 -1.8048017e-05 0.0000000e+00 
1.1202213e-07 -1.8047632e-05 0.0000000e+00 
1.9886331e-07 -1.8048476e-05 0.0000000e+00 
2.8568944e-07 -1.8047529e-05 0.0000000e+00 
2.7515907e-08 -1.8157390e-05 0.0000000e+00 
1.1320367e-07 -1.8161753e-05 0.0000000e+00 
1.9899678e-07 -1.8164338e-05 0.0000000e+00 
2.8484031e-07 -1.8168162e-05 0.0000000e+00 
2.9589558e-08 -1.8276686e-05 0.0000000e+00 
1.1434620e-07 -1.8276258e-05 0.0000000e+00 
1.9913308e-07 -1.8277079e-05 0.0000000e+00 
2.8389593e-07 -1.8276134e-05 0.0000000e+00 
3.1691136e-08 -1.8383410e-05 0.0000000e+00 
1.1540876e-07 -1.8387706e-05 0.0000000e+00 
1.9923020e-07 -1.8390253e-05 0.0000000e+00 
2.8310260e-07 -1.8394054e-05 0.0000000e+00 
3.3570573e-08 -1.8500096e-05 0.0000000e+00 
1.1643704e-07 -1.8499634e-05 0.0000000e+00 
1.9933323e-07 -1.8500431e-05 0.0000000e+00 
2.8220705e-07 -1.8499493e-05 0.0000000e+00 
3.5479479e-08 -1.8604392e-05 0.0000000e+00 
1.1738698e-07 -1.8608623e-05 0.0000000e+00 
1.9939706e-07 -1.8611135e-05 0.0000000e+00 
2.8145911e-07 -1.8614912e-05 0.0000000e+00 
3.7169857e-08 -1.8718681e-05 0.0000000e+00 
1.1830324e-07 -1.8718185e-05 0.0000000e+00 
1.9946576e-07 -1.8718959e-05 0.0000000e+00 
2.8060757e-07 -1.8718028e-05 0.0000000e+00 
3.8891398e-08 -1.8820756e-05 0.0000000e+00 
1.1914275e-07 -1.8824922e-05 0.0000000e+00 
1.9949516e-07 -1.8827402e-05 0.0000000e+00 
2.7990023e-07 -1.8831154e-05 0.0000000e+00 
4.0392670e-08 -1.8932847e-05 0.0000000e+00 
1.1995319e-07 -1.8932323e-05 0.0000000e+00 
1.9953228e-07 -1.8933074e-05 0.0000000e+00 
2.7908244e-07 -1.8932154e-05 0.0000000e+00 
4.1911356e-08 -1.9032948e-05 0.0000000e+00 
1.2068543e-07 -1.9037012e-05 0.0000000e+00 
1.9952698e-07 -1.9039448e-05 0.0000000e+00 
2.7838989e-07 -1.9043135e-05 0.0000000e+00 
4.3374516e-08 -1.9143067e-05 0.0000000e+00 
1.2129031e-07 -1.9142579e-05 0.0000000e+00 
1.9942936e-07 -1.9143027e-05 0.0000000e+00 
2.7774644e-07 -1.9142179e-05 0.0000000e+00 
4.5190531e-08 -1.9241220e-05 0.0000000e+00 
1.2167151e-07 -1.9244916e-05 0.0000000e+00 
1.9914204e-07 -1.9248013e-05 0.0000000e+00 
2.7755841e-07 -1.9251367e-05 0.0000000e+00 
4.6057807e-08 -1.9344065e-05 0.0000000e+00 