# vtk DataFile Version 4.0
vtk output
ASCII
DATASET UNSTRUCTURED_GRID
POINTS 604 float
5.5000000e+00 5.9700000e+00 0.0000000e+00 
5.5000000e+00 5.9900000e+00 0.0000000e+00 
5.5266667e+00 5.9700000e+00 0.0000000e+00 
5.5266667e+00 5.9900000e+00 0.0000000e+00 
5.5000000e+00 6.0100000e+00 0.0000000e+00 
5.5266667e+00 6.0100000e+00 0.0000000e+00 
5.5533333e+00 5.9700000e+00 0.0000000e+00 
5.5533333e+00 5.9900000e+00 0.0000000e+00 
5.5000000e+00 6.0300000e+00 0.0000000e+00 
5.5266667e+00 6.0300000e+00 0.0000000e+00 
5.5533333e+00 6.0100000e+00 0.0000000e+00 
5.5800000e+00 5.9700000e+00 0.0000000e+00 
5.5533333e+00 6.0300000e+00 0.0000000e+00 
5.5800000e+00 5.9900000e+00 0.0000000e+00 
5.5800000e+00 6.0100000e+00 0.0000000e+00 
5.5800000e+00 6.0300000e+00 0.0000000e+00 
5.6066667e+00 5.9700000e+00 0.0000000e+00 
5.6066667e+00 5.9900000e+00 0.0000000e+00 
5.6066667e+00 6.0100000e+00 0.0000000e+00 
5.6066667e+00 6.0300000e+00 0.0000000e+00 
5.6333333e+00 5.9700000e+00 0.0000000e+00 
5.6333333e+00 5.9900000e+00 0.0000000e+00 
5.6333333e+00 6.0100000e+00 0.0000000e+00 
5.6333333e+00 6.0300000e+00 0.0000000e+00 
5.6600000e+00 5.9700000e+00 0.0000000e+00 
5.6600000e+00 5.9900000e+00 0.0000000e+00 
5.6600000e+00 6.0100000e+00 0.0000000e+00 
5.6600000e+00 6.0300000e+00 0.0000000e+00 
5.6866667e+00 5.9700000e+00 0.0000000e+00 
5.6866667e+00 5.9900000e+00 0.0000000e+00 
5.6866667e+00 6.0100000e+00 0.0000000e+00 
5.6866667e+00 6.0300000e+00 0.0000000e+00 
5.7133333e+00 5.9700000e+00 0.0000000e+00 
5.7133333e+00 5.9900000e+00 0.0000000e+00 
5.7133333e+00 6.0100000e+00 0.0000000e+00 
5.7133333e+00 6.0300000e+00 0.0000000e+00 
5.7400000e+00 5.9700000e+00 0.0000000e+00 
5.7400000e+00 5.9900000e+00 0.0000000e+00 
5.7400000e+00 6.0100000e+00 0.0000000e+00 
5.7400000e+00 6.0300000e+00 0.0000000e+00 
5.7666667e+00 5.9700000e+00 0.0000000e+00 
5.7666667e+00 5.9900000e+00 0.0000000e+00 
5.7666667e+00 6.0100000e+00 0.0000000e+00 
5.7666667e+00 6.0300000e+00 0.0000000e+00 
5.7933333e+00 5.9700000e+00 0.0000000e+00 
5.7933333e+00 5.9900000e+00 0.0000000e+00 
5.7933333e+00 6.0100000e+00 0.0000000e+00 
5.7933333e+00 6.0300000e+00 0.0000000e+00 
5.8200000e+00 5.9700000e+00 0.0000000e+00 
5.8200000e+00 5.9900000e+00 0.0000000e+00 
5.8200000e+00 6.0100000e+00 0.0000000e+00 
5.8200000e+00 6.0300000e+00 0.0000000e+00 
5.8466667e+00 5.9700000e+00 0.0000000e+00 
5.8466667e+00 5.9900000e+00 0.0000000e+00 
5.8466667e+00 6.0100000e+00 0.0000000e+00 
5.8466667e+00 6.0300000e+00 0.0000000e+00 
5.8733333e+00 5.9700000e+00 0.0000000e+00 
5.8733333e+00 5.9900000e+00 0.0000000e+00 
5.8733333e+00 6.0100000e+00 0.0000000e+00 
5.8733333e+00 6.0300000e+00 0.0000000e+00 
5.9000000e+00 5.9700000e+00 0.0000000e+00 
5.9000000e+00 5.9900000e+00 0.0000000e+00 
5.9000000e+00 6.0100000e+00 0.0000000e+00 
5.9000000e+00 6.0300000e+00 0.0000000e+00 
5.9266667e+00 5.9700000e+00 0.0000000e+00 
5.9266667e+00 5.9900000e+00 0.0000000e+00 
5.9266667e+00 6.0100000e+00 0.0000000e+00 
5.9266667e+00 6.0300000e+00 0.0000000e+00 
5.9533333e+00 5.9700000e+00 0.0000000e+00 
5.9533333e+00 5.9900000e+00 0.0000000e+00 
5.9533333e+00 6.0100000e+00 0.0000000e+00 
5.9533333e+00 6.0300000e+00 0.0000000e+00 
5.9800000e+00 5.9700000e+00 0.0000000e+00 
5.9800000e+00 5.9900000e+00 0.0000000e+00 
5.9800000e+00 6.0100000e+00 0.0000000e+00 
5.9800000e+00 6.0300000e+00 0.0000000e+00 
6.0066667e+00 5.9700000e+00 0.0000000e+00 
6.0066667e+00 5.9900000e+00 0.0000000e+00 
6.0066667e+00 6.0100000e+00 0.0000000e+00 
6.0066667e+00 6.0300000e+00 0.0000000e+00 
6.0333333e+00 5.9700000e+00 0.0000000e+00 
6.0333333e+00 5.9900000e+00 0.0000000e+00 
6.0333333e+00 6.0100000e+00 0.0000000e+00 
6.0333333e+00 6.0300000e+00 0.0000000e+00 
6.0600000e+00 5.9700000e+00 0.0000000e+00 
6.0600000e+00 5.9900000e+00 0.0000000e+00 
6.0600000e+00 6.0100000e+00 0.0000000e+00 
6.0600000e+00 6.0300000e+00 0.0000000e+00 
6.0866667e+00 5.9700000e+00 0.0000000e+00 
6.0866667e+00 5.9900000e+00 0.0000000e+00 
6.0866667e+00 6.0100000e+00 0.0000000e+00 
6.0866667e+00 6.0300000e+00 0.0000000e+00 
6.1133333e+00 5.9700000e+00 0.0000000e+00 
6.1133333e+00 5.9900000e+00 0.0000000e+00 
6.1133333e+00 6.0100000e+00 0.0000000e+00 
6.1133333e+00 6.0300000e+00 0.0000000e+00 
6.1400000e+00 5.9700000e+00 0.0000000e+00 
6.1400000e+00 5.9900000e+00 0.0000000e+00 
6.1400000e+00 6.0100000e+00 0.0000000e+00 
6.1400000e+00 6.0300000e+00 0.0000000e+00 
6.1666667e+00 5.9700000e+00 0.0000000e+00 
6.1666667e+00 5.9900000e+00 0.0000000e+00 
6.1666667e+00 6.0100000e+00 0.0000000e+00 
6.1666667e+00 6.0300000e+00 0.0000000e+00 
6.1933333e+00 5.9700000e+00 0.0000000e+00 
6.1933333e+00 5.9900000e+00 0.0000000e+00 
6.1933333e+00 6.0100000e+00 0.0000000e+00 
6.1933333e+00 6.0300000e+00 0.0000000e+00 
6.2200000e+00 5.9700000e+00 0.0000000e+00 
6.2200000e+00 5.9900000e+00 0.0000000e+00 
6.2200000e+00 6.0100000e+00 0.0000000e+00 
6.2200000e+00 6.0300000e+00 0.0000000e+00 
6.2466667e+00 5.9700000e+00 0.0000000e+00 
6.2466667e+00 5.9900000e+00 0.0000000e+00 
6.2466667e+00 6.0100000e+00 0.0000000e+00 
6.2466667e+00 6.0300000e+00 0.0000000e+00 
6.2733333e+00 5.9700000e+00 0.0000000e+00 
6.2733333e+00 5.9900000e+00 0.0000000e+00 
6.2733333e+00 6.0100000e+00 0.0000000e+00 
6.2733333e+00 6.0300000e+00 0.0000000e+00 
6.3000000e+00 5.9700000e+00 0.0000000e+00 
6.3000000e+00 5.9900000e+00 0.0000000e+00 
6.3000000e+00 6.0100000e+00 0.0000000e+00 
6.3000000e+00 6.0300000e+00 0.0000000e+00 
6.3266667e+00 5.9700000e+00 0.0000000e+00 
6.3266667e+00 5.9900000e+00 0.0000000e+00 
6.3266667e+00 6.0100000e+00 0.0000000e+00 
6.3266667e+00 6.0300000e+00 0.0000000e+00 
6.3533333e+00 5.9700000e+00 0.0000000e+00 
6.3533333e+00 5.9900000e+00 0.0000000e+00 
6.3533333e+00 6.0100000e+00 0.0000000e+00 
6.3533333e+00 6.0300000e+00 0.0000000e+00 
6.3800000e+00 5.9700000e+00 0.0000000e+00 
6.3800000e+00 5.9900000e+00 0.0000000e+00 
6.3800000e+00 6.0100000e+00 0.0000000e+00 
6.3800000e+00 6.0300000e+00 0.0000000e+00 
6.4066667e+00 5.9700000e+00 0.0000000e+00 
6.4066667e+00 5.9900000e+00 0.0000000e+00 
6.4066667e+00 6.0100000e+00 0.0000000e+00 
6.4066667e+00 6.0300000e+00 0.0000000e+00 
6.4333333e+00 5.9700000e+00 0.0000000e+00 
6.4333333e+00 5.9900000e+00 0.0000000e+00 
6.4333333e+00 6.0100000e+00 0.0000000e+00 
6.4333333e+00 6.0300000e+00 0.0000000e+00 
6.4600000e+00 5.9700000e+00 0.0000000e+00 
6.4600000e+00 5.9900000e+00 0.0000000e+00 
6.4600000e+00 6.0100000e+00 0.0000000e+00 
6.4600000e+00 6.0300000e+00 0.0000000e+00 
6.4866667e+00 5.9700000e+00 0.0000000e+00 
6.4866667e+00 5.9900000e+00 0.0000000e+00 
6.4866667e+00 6.0100000e+00 0.0000000e+00 
6.4866667e+00 6.0300000e+00 0.0000000e+00 
6.5133333e+00 5.9700000e+00 0.0000000e+00 
6.5133333e+00 5.9900000e+00 0.0000000e+00 
6.5133333e+00 6.0100000e+00 0.0000000e+00 
6.5133333e+00 6.0300000e+00 0.0000000e+00 
6.5400000e+00 5.9700000e+00 0.0000000e+00 
6.5400000e+00 5.9900000e+00 0.0000000e+00 
6.5400000e+00 6.0100000e+00 0.0000000e+00 
6.5400000e+00 6.0300000e+00 0.0000000e+00 
6.5666667e+00 5.9700000e+00 0.0000000e+00 
6.5666667e+00 5.9900000e+00 0.0000000e+00 
6.5666667e+00 6.0100000e+00 0.0000000e+00 
6.5666667e+00 6.0300000e+00 0.0000000e+00 
6.5933333e+00 5.9700000e+00 0.0000000e+00 
6.5933333e+00 5.9900000e+00 0.0000000e+00 
6.5933333e+00 6.0100000e+00 0.0000000e+00 
6.5933333e+00 6.0300000e+00 0.0000000e+00 
6.6200000e+00 5.9700000e+00 0.0000000e+00 
6.6200000e+00 5.9900000e+00 0.0000000e+00 
6.6200000e+00 6.0100000e+00 0.0000000e+00 
6.6200000e+00 6.0300000e+00 0.0000000e+00 
6.6466667e+00 5.9700000e+00 0.0000000e+00 
6.6466667e+00 5.9900000e+00 0.0000000e+00 
6.6466667e+00 6.0100000e+00 0.0000000e+00 
6.6466667e+00 6.0300000e+00 0.0000000e+00 
6.6733333e+00 5.9700000e+00 0.0000000e+00 
6.6733333e+00 5.9900000e+00 0.0000000e+00 
6.6733333e+00 6.0100000e+00 0.0000000e+00 
6.6733333e+00 6.0300000e+00 0.0000000e+00 
6.7000000e+00 5.9700000e+00 0.0000000e+00 
6.7000000e+00 5.9900000e+00 0.0000000e+00 
6.7000000e+00 6.0100000e+00 0.0000000e+00 
6.7000000e+00 6.0300000e+00 0.0000000e+00 
6.7266667e+00 5.9700000e+00 0.0000000e+00 
6.7266667e+00 5.9900000e+00 0.0000000e+00 
6.7266667e+00 6.0100000e+00 0.0000000e+00 
6.7266667e+00 6.0300000e+00 0.0000000e+00 
6.7533333e+00 5.9700000e+00 0.0000000e+00 
6.7533333e+00 5.9900000e+00 0.0000000e+00 
6.7533333e+00 6.0100000e+00 0.0000000e+00 
6.7533333e+00 6.0300000e+00 0.0000000e+00 
6.7800000e+00 5.9700000e+00 0.0000000e+00 
6.7800000e+00 5.9900000e+00 0.0000000e+00 
6.7800000e+00 6.0100000e+00 0.0000000e+00 
6.7800000e+00 6.0300000e+00 0.0000000e+00 
6.8066667e+00 5.9700000e+00 0.0000000e+00 
6.8066667e+00 5.9900000e+00 0.0000000e+00 
6.8066667e+00 6.0100000e+00 0.0000000e+00 
6.8066667e+00 6.0300000e+00 0.0000000e+00 
6.8333333e+00 5.9700000e+00 0.0000000e+00 
6.8333333e+00 5.9900000e+00 0.0000000e+00 
6.8333333e+00 6.0100000e+00 0.0000000e+00 
6.8333333e+00 6.0300000e+00 0.0000000e+00 
6.8600000e+00 5.9700000e+00 0.0000000e+00 
6.8600000e+00 5.9900000e+00 0.0000000e+00 
6.8600000e+00 6.0100000e+00 0.0000000e+00 
6.8600000e+00 6.0300000e+00 0.0000000e+00 
6.8866667e+00 5.9700000e+00 0.0000000e+00 
6.8866667e+00 5.9900000e+00 0.0000000e+00 
6.8866667e+00 6.0100000e+00 0.0000000e+00 
6.8866667e+00 6.0300000e+00 0.0000000e+00 
6.9133333e+00 5.9700000e+00 0.0000000e+00 
6.9133333e+00 5.9900000e+00 0.0000000e+00 
6.9133333e+00 6.0100000e+00 0.0000000e+00 
6.9133333e+00 6.0300000e+00 0.0000000e+00 
6.9400000e+00 5.9700000e+00 0.0000000e+00 
6.9400000e+00 5.9900000e+00 0.0000000e+00 
6.9400000e+00 6.0100000e+00 0.0000000e+00 
6.9400000e+00 6.0300000e+00 0.0000000e+00 
6.9666667e+00 5.9700000e+00 0.0000000e+00 
6.9666667e+00 5.9900000e+00 0.0000000e+00 
6.9666667e+00 6.0100000e+00 0.0000000e+00 
6.9666667e+00 6.0300000e+00 0.0000000e+00 
6.9933333e+00 5.9700000e+00 0.0000000e+00 
6.9933333e+00 5.9900000e+00 0.0000000e+00 
6.9933333e+00 6.0100000e+00 0.0000000e+00 
6.9933333e+00 6.0300000e+00 0.0000000e+00 
7.0200000e+00 5.9700000e+00 0.0000000e+00 
7.0200000e+00 5.9900000e+00 0.0000000e+00 
[...]
POINT_DATA 604
FIELD FieldData 2
DISPLACEMENT 3 604  float
0.0000000e+00 0.0000000e+00 0.0000000e+00 
0.0000000e+00 0.0000000e+00 0.0000000e+00 
2.4223201e-04 1.4894549e-04 0.0000000e+00 
7.6127381e-05 9.6970608e-05 0.0000000e+00 
0.0000000e+00 0.0000000e+00 0.0000000e+00 
-7.8550027e-05 9.6005910e-05 0.0000000e+00 
4.8582226e-04 4.7756429e-04 0.0000000e+00 
1.5924187e-04 4.3267074e-04 0.0000000e+00 
0.0000000e+00 0.0000000e+00 0.0000000e+00 
-2.4519290e-04 1.4626636e-04 0.0000000e+00 
-1.6755304e-04 4.2957874e-04 0.0000000e+00 
7.2177381e-04 1.0318113e-03 0.0000000e+00 
-4.9550479e-04 4.6871723e-04 0.0000000e+00 
2.3312135e-04 9.8343532e-04 0.0000000e+00 
-2.5435671e-04 9.7707500e-04 0.0000000e+00 
-7.4515103e-04 1.0129746e-03 0.0000000e+00 
9.4771300e-04 1.8007119e-03 0.0000000e+00 
3.0080530e-04 1.7487863e-03 0.0000000e+00 
-3.4545858e-04 1.7379788e-03 0.0000000e+00 
-9.9510736e-04 1.7685691e-03 0.0000000e+00 
1.1622453e-03 2.7808811e-03 0.0000000e+00 
3.6009238e-04 2.7240749e-03 0.0000000e+00 
-4.4170567e-04 2.7076078e-03 0.0000000e+00 
-1.2471796e-03 2.7316310e-03 0.0000000e+00 
1.3639228e-03 3.9678183e-03 0.0000000e+00 
4.0960234e-04 3.9051530e-03 0.0000000e+00 
-5.4465648e-04 3.8820482e-03 0.0000000e+00 
-1.5028587e-03 3.8986626e-03 0.0000000e+00 
1.5514249e-03 5.3574607e-03 0.0000000e+00 
4.4795094e-04 5.2878873e-03 0.0000000e+00 
-6.5573545e-04 5.2570956e-03 0.0000000e+00 
-1.7635291e-03 5.2652124e-03 0.0000000e+00 
1.7235124e-03 6.9456723e-03 0.0000000e+00 
4.7391109e-04 6.8682034e-03 0.0000000e+00 
-7.7616228e-04 6.8287453e-03 0.0000000e+00 
-2.0305833e-03 6.8273258e-03 0.0000000e+00 
1.8790574e-03 8.7282226e-03 0.0000000e+00 
4.8627944e-04 8.6420737e-03 0.0000000e+00 
-9.0721231e-04 8.5931651e-03 0.0000000e+00 
-2.3052534e-03 8.5815837e-03 0.0000000e+00 
2.0169570e-03 1.0701276e-02 0.0000000e+00 
4.8394873e-04 1.0605537e-02 0.0000000e+00 
-1.0499994e-03 1.0546300e-02 0.0000000e+00 
-2.5886794e-03 1.0523505e-02 0.0000000e+00 
2.1362349e-03 1.2860608e-02 0.0000000e+00 
4.6589694e-04 1.2754622e-02 0.0000000e+00 
-1.2055860e-03 1.2684372e-02 0.0000000e+00 
-2.8819690e-03 1.2649878e-02 0.0000000e+00 
2.2359466e-03 1.5202469e-02 0.0000000e+00 
4.3117793e-04 1.5085433e-02 0.0000000e+00 
-1.3749332e-03 1.5003411e-02 0.0000000e+00 
-3.1860966e-03 1.4956273e-02 0.0000000e+00 
2.3152768e-03 1.7722701e-02 0.0000000e+00 
3.7892025e-04 1.7594075e-02 0.0000000e+00 
-1.5589557e-03 1.7499710e-02 0.0000000e+00 
-3.5020239e-03 1.7439562e-02 0.0000000e+00 
2.3734257e-03 2.0417651e-02 0.0000000e+00 
3.0832383e-04 2.0276736e-02 0.0000000e+00 
-1.7584673e-03 2.0169375e-02 0.0000000e+00 
-3.8305743e-03 2.0095374e-02 0.0000000e+00 
2.4097233e-03 2.3283235e-02 0.0000000e+00 
2.1865955e-04 2.3129599e-02 0.0000000e+00 
-1.9742444e-03 2.3008775e-02 0.0000000e+00 
-4.1725779e-03 2.2920663e-02 0.0000000e+00 
2.4235046e-03 2.6315897e-02 0.0000000e+00 
1.0926253e-04 2.6148934e-02 0.0000000e+00 
-2.2069637e-03 2.6014093e-02 0.0000000e+00 
-4.5287168e-03 2.5911124e-02 0.0000000e+00 
2.4142337e-03 2.9511629e-02 0.0000000e+00 
-2.0464473e-05 2.9331007e-02 0.0000000e+00 
-2.4572738e-03 2.9181780e-02 0.0000000e+00 
-4.8996997e-03 2.9063795e-02 0.0000000e+00 
2.3813704e-03 3.2866972e-02 0.0000000e+00 
-1.7106168e-04 3.2672175e-02 0.0000000e+00 
-2.7257249e-03 3.2508098e-02 0.0000000e+00 
-5.2860769e-03 3.2374440e-02 0.0000000e+00 
2.3245023e-03 3.6378002e-02 0.0000000e+00 
-3.4300438e-04 3.6168787e-02 0.0000000e+00 
-3.0128468e-03 3.5989581e-02 0.0000000e+00 
-5.6884454e-03 3.5840183e-02 0.0000000e+00 
2.2432007e-03 4.0041356e-02 0.0000000e+00 
-5.3671590e-04 3.9817292e-02 0.0000000e+00 
-3.3190711e-03 3.9622571e-02 0.0000000e+00 
-6.1072374e-03 3.9456860e-02 0.0000000e+00 
2.1371648e-03 4.3853187e-02 0.0000000e+00 
-7.5255978e-04 4.3614112e-02 0.0000000e+00 
-3.6448183e-03 4.3403708e-02 0.0000000e+00 
-6.5429505e-03 4.3221681e-02 0.0000000e+00 
2.0061157e-03 4.7810163e-02 0.0000000e+00 
-9.9087412e-04 4.7555770e-02 0.0000000e+00 
-3.9904720e-03 4.7329387e-02 0.0000000e+00 
-6.9959056e-03 4.7130714e-02 0.0000000e+00 
1.8498228e-03 5.1908830e-02 0.0000000e+00 
-1.2518734e-03 5.1638857e-02 0.0000000e+00 
-4.3562476e-03 5.1396244e-02 0.0000000e+00 
-7.4665105e-03 5.1180603e-02 0.0000000e+00 
1.6681383e-03 5.6145602e-02 0.0000000e+00 
-1.5358006e-03 5.5859992e-02 0.0000000e+00 
-4.7424841e-03 5.5601083e-02 0.0000000e+00 
-7.9550810e-03 5.5368579e-02 0.0000000e+00 
1.4608737e-03 6.0517403e-02 0.0000000e+00 
-1.8428464e-03 6.0215895e-02 0.0000000e+00 
-5.1493618e-03 5.9940480e-02 0.0000000e+00 
-8.4617921e-03 5.9690719e-02 0.0000000e+00 
1.2279594e-03 6.5020657e-02 0.0000000e+00 
-2.1731385e-03 6.4703265e-02 0.0000000e+00 
-5.5770743e-03 6.4411315e-02 0.0000000e+00 
-8.9869321e-03 6.4144481e-02 0.0000000e+00 
9.6929394e-04 6.9652377e-02 0.0000000e+00 
-2.5267796e-03 6.9318899e-02 0.0000000e+00 
-6.0257266e-03 6.9010271e-02 0.0000000e+00 
-9.5305810e-03 6.8726027e-02 0.0000000e+00 
6.8489275e-04 7.4409081e-02 0.0000000e+00 
-2.9038203e-03 7.4059588e-02 0.0000000e+00 
-6.4954350e-03 7.3734312e-02 0.0000000e+00 
-1.0092950e-02 7.3432900e-02 0.0000000e+00 
3.7472853e-04 7.9287872e-02 0.0000000e+00 
-3.3042883e-03 7.8922220e-02 0.0000000e+00 
-6.9862281e-03 7.8580210e-02 0.0000000e+00 
-1.0674039e-02 7.8261350e-02 0.0000000e+00 
3.8889722e-05 8.4285369e-02 0.0000000e+00 
-3.7281619e-03 8.3903679e-02 0.0000000e+00 
-7.4981513e-03 8.3545016e-02 0.0000000e+00 
-1.1273993e-02 8.3208999e-02 0.0000000e+00 
-3.2258391e-04 8.9398765e-02 0.0000000e+00 
-4.1754009e-03 8.9000945e-02 0.0000000e+00 
-8.0311641e-03 8.8625591e-02 0.0000000e+00 
-1.1892736e-02 8.8272191e-02 0.0000000e+00 
-7.0953803e-04 9.4624774e-02 0.0000000e+00 
-4.6459187e-03 9.4210990e-02 0.0000000e+00 
-8.5852481e-03 9.3819075e-02 0.0000000e+00 
-1.2530356e-02 9.3448628e-02 0.0000000e+00 
-1.1218729e-03 9.9960679e-02 0.0000000e+00 
-5.1396141e-03 9.9530886e-02 0.0000000e+00 
-9.1603010e-03 9.9122418e-02 0.0000000e+00 
-1.3186711e-02 9.8734745e-02 0.0000000e+00 
-1.5593752e-03 1.0540330e-01 0.0000000e+00 
-5.6563425e-03 1.0495770e-01 0.0000000e+00 
-9.7562467e-03 1.0453285e-01 0.0000000e+00 
-1.3861834e-02 1.0412832e-01 0.0000000e+00 
-2.0218951e-03 1.1094999e-01 0.0000000e+00 
-6.1959465e-03 1.1048859e-01 0.0000000e+00 
-1.0372926e-02 1.1004740e-01 0.0000000e+00 
-1.4555527e-02 1.0962589e-01 0.0000000e+00 
-2.5091680e-03 1.1659767e-01 0.0000000e+00 
-6.7582294e-03 1.1612071e-01 0.0000000e+00 
-1.1010212e-02 1.1566341e-01 0.0000000e+00 
-1.5267778e-02 1.1522530e-01 0.0000000e+00 
-3.0209503e-03 1.2234374e-01 0.0000000e+00 
-7.3430015e-03 1.2185128e-01 0.0000000e+00 
-1.1667951e-02 1.2137797e-01 0.0000000e+00 
-1.5998354e-02 1.2092333e-01 0.0000000e+00 
-3.5569743e-03 1.2818547e-01 0.0000000e+00 
-7.9499857e-03 1.2767764e-01 0.0000000e+00 
-1.2345870e-02 1.2718843e-01 0.0000000e+00 
-1.6747164e-02 1.2671730e-01 0.0000000e+00 
-4.1169173e-03 1.3412005e-01 0.0000000e+00 
-8.5789532e-03 1.3359711e-01 0.0000000e+00 
-1.3043840e-02 1.3309227e-01 0.0000000e+00 
-1.7514079e-02 1.3260509e-01 0.0000000e+00 
-4.7005336e-03 1.4014510e-01 0.0000000e+00 
-9.2296524e-03 1.3960713e-01 0.0000000e+00 
-1.3761590e-02 1.3908678e-01 0.0000000e+00 
-1.8298795e-02 1.3858349e-01 0.0000000e+00 
-5.3074649e-03 1.4625781e-01 0.0000000e+00 
-9.9017919e-03 1.4570512e-01 0.0000000e+00 
-1.4498900e-02 1.4516953e-01 0.0000000e+00 
-1.9101212e-02 1.4465060e-01 0.0000000e+00 
-5.9374292e-03 1.5245589e-01 0.0000000e+00 
-1.0595080e-02 1.5188858e-01 0.0000000e+00 
-1.5255476e-02 1.5133790e-01 0.0000000e+00 
-1.9920984e-02 1.5080331e-01 0.0000000e+00 
-6.5900320e-03 1.5873663e-01 0.0000000e+00 
-1.1309198e-02 1.5815501e-01 0.0000000e+00 
-1.6031066e-02 1.5758954e-01 0.0000000e+00 
-2.0757976e-02 1.5703977e-01 0.0000000e+00 
-7.2649651e-03 1.6509781e-01 0.0000000e+00 
-1.2043825e-02 1.6450202e-01 0.0000000e+00 
-1.6825345e-02 1.6392193e-01 0.0000000e+00 
-2.1611811e-02 1.6335697e-01 0.0000000e+00 
-7.9618059e-03 1.7153682e-01 0.0000000e+00 
-1.2798616e-02 1.7092720e-01 0.0000000e+00 
-1.7638037e-02 1.7033280e-01 0.0000000e+00 
-2.2482331e-02 1.6975316e-01 0.0000000e+00 
-8.6802243e-03 1.7805153e-01 0.0000000e+00 
-1.3573226e-02 1.7742822e-01 0.0000000e+00 
-1.8468792e-02 1.7681970e-01 0.0000000e+00 
-2.3369130e-02 1.7622540e-01 0.0000000e+00 
-9.4197742e-03 1.8463941e-01 0.0000000e+00 
-1.4367287e-02 1.8400277e-01 0.0000000e+00 
-1.9317310e-02 1.8338045e-01 0.0000000e+00 
-2.4272028e-02 1.8277200e-01 0.0000000e+00 
-1.0180108e-02 1.9129841e-01 0.0000000e+00 
-1.5180434e-02 1.9064860e-01 0.0000000e+00 
-2.0183222e-02 1.9001270e-01 0.0000000e+00 
-2.5190599e-02 1.8939015e-01 0.0000000e+00 
-1.0960759e-02 1.9802611e-01 0.0000000e+00 
-1.6012282e-02 1.9736349e-01 0.0000000e+00 
-2.1066208e-02 1.9671435e-01 0.0000000e+00 
-2.6124644e-02 1.9607820e-01 0.0000000e+00 
-1.1761369e-02 2.0482052e-01 0.0000000e+00 
-1.6862447e-02 2.0414529e-01 0.0000000e+00 
-2.1965881e-02 2.0348311e-01 0.0000000e+00 
-2.7073720e-02 2.0283343e-01 0.0000000e+00 
-1.2581456e-02 2.1167930e-01 0.0000000e+00 
-1.7730530e-02 2.1099182e-01 0.0000000e+00 
-2.2881908e-02 2.1031697e-01 0.0000000e+00 
-2.8037618e-02 2.0965428e-01 0.0000000e+00 
-1.3420606e-02 2.1860052e-01 0.0000000e+00 
-1.8616147e-02 2.1790101e-01 0.0000000e+00 
-2.3813937e-02 2.1721373e-01 0.0000000e+00 
-2.9015902e-02 2.1653822e-01 0.0000000e+00 
-1.4278381e-02 2.2558214e-01 0.0000000e+00 
-1.9518858e-02 2.2487084e-01 0.0000000e+00 
-2.4761530e-02 2.2417138e-01 0.0000000e+00 
-3.0008301e-02 2.2348325e-01 0.0000000e+00 
-1.5154301e-02 2.3262206e-01 0.0000000e+00 
-2.0438281e-02 2.3189934e-01 0.0000000e+00 
-2.5724398e-02 2.3118807e-01 0.0000000e+00 
-3.1014535e-02 2.3048781e-01 0.0000000e+00 
-1.6048000e-02 2.3971854e-01 0.0000000e+00 
-2.1374022e-02 2.3898459e-01 0.0000000e+00 
-2.6702128e-02 2.3826174e-01 0.0000000e+00 
-3.2034142e-02 2.3754944e-01 0.0000000e+00 
-1.6958982e-02 2.4686949e-01 0.0000000e+00 
-2.2325668e-02 2.4612469e-01 0.0000000e+00 
-2.7694372e-02 2.4539060e-01 0.0000000e+00 
-3.3066903e-02 2.4466679e-01 0.0000000e+00 
-1.7886876e-02 2.5407322e-01 0.0000000e+00 
-2.3292816e-02 2.5331777e-01 0.0000000e+00 
-2.8700721e-02 2.5257269e-01 0.0000000e+00 
-3.4112343e-02 2.5183745e-01 0.0000000e+00 
-1.8831180e-02 2.6132775e-01 0.0000000e+00 
-2.4275055e-02 2.6056202e-01 0.0000000e+00 
-2.9720827e-02 2.5980629e-01 0.0000000e+00 
-3.5170235e-02 2.5906014e-01 0.0000000e+00 
-1.9791521e-02 2.6863146e-01 0.0000000e+00 
-2.5271977e-02 2.6785567e-01 0.0000000e+00 
-3.0754277e-02 2.6708953e-01 0.0000000e+00 
-3.6240102e-02 2.6633256e-01 0.0000000e+00 
-2.0767395e-02 2.7598243e-01 0.0000000e+00 
-2.6283170e-02 2.7519694e-01 0.0000000e+00 
-3.1800721e-02 2.7442076e-01 0.0000000e+00 
-3.7321716e-02 2.7365348e-01 0.0000000e+00 
-2.1758434e-02 2.8337914e-01 0.0000000e+00 
-2.7308228e-02 2.8258416e-01 0.0000000e+00 
-3.2859746e-02 2.8179817e-01 0.0000000e+00 
-3.8414598e-02 2.8102067e-01 0.0000000e+00 
-2.2764133e-02 2.9081974e-01 0.0000000e+00 
-2.8346741e-02 2.9001564e-01 0.0000000e+00 
-3.3931003e-02 2.8922019e-01 0.0000000e+00 
-3.9518520e-02 2.8843299e-01 0.0000000e+00 
-2.3784129e-02 2.9830278e-01 0.0000000e+00 
-2.9398303e-02 2.9748975e-01 0.0000000e+00 
-3.5014083e-02 2.9668508e-01 0.0000000e+00 
-4.0633005e-02 2.9588828e-01 0.0000000e+00 
-2.4817918e-02 3.0582647e-01 0.0000000e+00 
-3.0462509e-02 3.0500490e-01 0.0000000e+00 
-3.6108636e-02 3.0419136e-01 0.0000000e+00 
-4.1757828e-02 3.0338545e-01 0.0000000e+00 
-2.5865147e-02 3.1338944e-01 0.0000000e+00 
-3.1538958e-02 3.1255953e-01 0.0000000e+00 
-3.7214257e-02 3.1173734e-01 0.0000000e+00 
-4.2892516e-02 3.1092243e-01 0.0000000e+00 
-2.6925317e-02 3.2098999e-01 0.0000000e+00 
-3.2627244e-02 3.2015209e-01 0.0000000e+00 
-3.8330605e-02 3.1932163e-01 0.0000000e+00 
-4.4036852e-02 3.1849820e-01 0.0000000e+00 
-2.7998034e-02 3.2862677e-01 0.0000000e+00 
-3.3726989e-02 3.2778111e-01 0.0000000e+00 
-3.9457321e-02 3.2694260e-01 0.0000000e+00 
-4.5190394e-02 3.2611086e-01 0.0000000e+00 
-2.9082879e-02 3.3629834e-01 0.0000000e+00 
-3.4837768e-02 3.3544516e-01 0.0000000e+00 
-4.0593982e-02 3.3459885e-01 0.0000000e+00 
-4.6352867e-02 3.3375898e-01 0.0000000e+00 
-3.0179386e-02 3.4400321e-01 0.0000000e+00 
-3.5959217e-02 3.4314285e-01 0.0000000e+00 
-4.1740313e-02 3.4228908e-01 0.0000000e+00 
-4.7524010e-02 3.4144155e-01 0.0000000e+00 
-3.1287237e-02 3.5174020e-01 0.0000000e+00 
-3.7090969e-02 3.5087285e-01 0.0000000e+00 
-4.2895924e-02 3.5001183e-01 0.0000000e+00 
-4.8703374e-02 3.4915673e-01 0.0000000e+00 
-3.2405961e-02 3.5950783e-01 0.0000000e+00 
-3.8232651e-02 3.5863382e-01 0.0000000e+00 
-4.4060499e-02 3.5776587e-01 0.0000000e+00 
-4.9890774e-02 3.5690366e-01 0.0000000e+00 
-3.3535247e-02 3.6730498e-01 0.0000000e+00 
-3.9383899e-02 3.6642448e-01 0.0000000e+00 
-4.5233668e-02 3.6554982e-01 0.0000000e+00 
-5.1085761e-02 3.6468057e-01 0.0000000e+00 
-3.4674630e-02 3.7513021e-01 0.0000000e+00 
-4.0544351e-02 3.7424357e-01 0.0000000e+00 
-4.6415125e-02 3.7336250e-01 0.0000000e+00 
-5.2288158e-02 3.7248668e-01 0.0000000e+00 
-3.5823814e-02 3.8298250e-01 0.0000000e+00 
-4.1713655e-02 3.8208987e-01 0.0000000e+00 
-4.7604511e-02 3.8120260e-01 0.0000000e+00 
-5.3497526e-02 3.8032027e-01 0.0000000e+00 
-3.6982344e-02 3.9086047e-01 0.0000000e+00 
-4.2891461e-02 3.8996219e-01 0.0000000e+00 
-4.8801531e-02 3.8906901e-01 0.0000000e+00 
-5.4713698e-02 3.8818063e-01 0.0000000e+00 
-3.8149936e-02 3.9876314e-01 0.0000000e+00 
-4.4077428e-02 3.9785937e-01 0.0000000e+00 
-5.0005837e-02 3.9696048e-01 0.0000000e+00 
-5.5936245e-02 3.9606609e-01 0.0000000e+00 
-3.9326147e-02 4.0668922e-01 0.0000000e+00 
-4.5271219e-02 4.0578026e-01 0.0000000e+00 
-5.1217145e-02 4.0487596e-01 0.0000000e+00 
-5.7165013e-02 4.0397602e-01 0.0000000e+00 
-4.0510708e-02 4.1463779e-01 0.0000000e+00 
-4.6472504e-02 4.1372381e-01 0.0000000e+00 
-5.2435122e-02 4.1281427e-01 0.0000000e+00 
-5.8399585e-02 4.1190882e-01 0.0000000e+00 
-4.1703188e-02 4.2260763e-01 0.0000000e+00 
-4.7680959e-02 4.2168891e-01 0.0000000e+00 
-5.3659493e-02 4.2077442e-01 0.0000000e+00 
-5.9639817e-02 4.1986389e-01 0.0000000e+00 
-4.2903334e-02 4.3059786e-01 0.0000000e+00 
-4.8896268e-02 4.2967456e-01 0.0000000e+00 
-5.4889939e-02 4.2875529e-01 0.0000000e+00 
-6.0885308e-02 4.2783972e-01 0.0000000e+00 
-4.4110731e-02 4.3860732e-01 0.0000000e+00 
-5.0118119e-02 4.3767972e-01 0.0000000e+00 
-5.6126200e-02 4.3675596e-01 0.0000000e+00 
-6.2135928e-02 4.3583576e-01 0.0000000e+00 
-4.5325092e-02 4.4663517e-01 0.0000000e+00 
-5.1346224e-02 4.4570343e-01 0.0000000e+00 
-5.7368006e-02 4.4477536e-01 0.0000000e+00 
-6.3391319e-02 4.4385067e-01 0.0000000e+00 
-4.6546099e-02 4.5468049e-01 0.0000000e+00 
-5.2580257e-02 4.5374479e-01 0.0000000e+00 
-5.8615036e-02 4.5281257e-01 0.0000000e+00 
-6.4651291e-02 4.5188352e-01 0.0000000e+00 
-4.7773385e-02 4.6274230e-01 0.0000000e+00 
-5.3819956e-02 4.6180290e-01 0.0000000e+00 
-5.9867102e-02 4.6086679e-01 0.0000000e+00 
-6.5915678e-02 4.5993374e-01 0.0000000e+00 
-4.9006745e-02 4.7081991e-01 0.0000000e+00 
-5.5065055e-02 4.6987692e-01 0.0000000e+00 
-6.1123919e-02 4.6893707e-01 0.0000000e+00 
-6.7184127e-02 4.6800005e-01 0.0000000e+00 
-5.0245810e-02 4.7891235e-01 0.0000000e+00 
-5.6315287e-02 4.7796602e-01 0.0000000e+00 
-6.2385267e-02 4.7702265e-01 0.0000000e+00 
-6.8456551e-02 4.7608204e-01 0.0000000e+00 
-5.1490388e-02 4.8701896e-01 0.0000000e+00 
-5.7570395e-02 4.8606940e-01 0.0000000e+00 
-6.3650889e-02 4.8512266e-01 0.0000000e+00 
-6.9732603e-02 4.8417845e-01 0.0000000e+00 
-5.2740122e-02 4.9513883e-01 0.0000000e+00 
-5.8830131e-02 4.9418628e-01 0.0000000e+00 
-6.4920578e-02 4.9323638e-01 0.0000000e+00 
-7.1012209e-02 4.9228895e-01 0.0000000e+00 
-5.3994838e-02 5.0327138e-01 0.0000000e+00 
-6.0094253e-02 5.0231593e-01 0.0000000e+00 
-6.6194092e-02 5.0136301e-01 0.0000000e+00 
-7.2295035e-02 5.0041234e-01 0.0000000e+00 
-5.5254193e-02 5.1141574e-01 0.0000000e+00 
-6.1362527e-02 5.1045762e-01 0.0000000e+00 
-6.7471240e-02 5.0950188e-01 0.0000000e+00 
-7.3581023e-02 5.0854832e-01 0.0000000e+00 
-5.6518030e-02 5.1957137e-01 0.0000000e+00 
-6.2634728e-02 5.1861068e-01 0.0000000e+00 
-6.8751794e-02 5.1765223e-01 0.0000000e+00 
-7.4869854e-02 5.1669578e-01 0.0000000e+00 
-5.7786021e-02 5.2773748e-01 0.0000000e+00 
-6.3910638e-02 5.2677442e-01 0.0000000e+00 
-7.0035578e-02 5.2581346e-01 0.0000000e+00 
-7.6161483e-02 5.2485445e-01 0.0000000e+00 
-5.9058025e-02 5.3591357e-01 0.0000000e+00 
-6.5190045e-02 5.3494822e-01 0.0000000e+00 
-7.1322380e-02 5.3398486e-01 0.0000000e+00 
-7.7455606e-02 5.3302327e-01 0.0000000e+00 
-6.0333731e-02 5.4409891e-01 0.0000000e+00 
-6.6472747e-02 5.4313147e-01 0.0000000e+00 
-7.2612038e-02 5.4216590e-01 0.0000000e+00 
-7.8752192e-02 5.4120203e-01 0.0000000e+00 
-6.1613016e-02 5.5229305e-01 0.0000000e+00 
-6.7758549e-02 5.5132360e-01 0.0000000e+00 
-7.3904353e-02 5.5035589e-01 0.0000000e+00 
-8.0050955e-02 5.4938974e-01 0.0000000e+00 
-6.2895584e-02 5.6049530e-01 0.0000000e+00 
-6.9047260e-02 5.5952402e-01 0.0000000e+00 
-7.5199182e-02 5.5855437e-01 0.0000000e+00 
-8.1351876e-02 5.5758621e-01 0.0000000e+00 
-6.4181284e-02 5.6870525e-01 0.0000000e+00 
-7.0338716e-02 5.6773221e-01 0.0000000e+00 
-7.6496372e-02 5.6676071e-01 0.0000000e+00 
-8.2654717e-02 5.6579061e-01 0.0000000e+00 
-6.5469926e-02 5.7692240e-01 0.0000000e+00 
-7.1632716e-02 5.7594769e-01 0.0000000e+00 
-7.7795727e-02 5.7497442e-01 0.0000000e+00 
-8.3959391e-02 5.7400243e-01 0.0000000e+00 
-6.6761264e-02 5.8514621e-01 0.0000000e+00 
-7.2929119e-02 5.8416999e-01 0.0000000e+00 
-7.9097165e-02 5.8319512e-01 0.0000000e+00 
-8.5265848e-02 5.8222149e-01 0.0000000e+00 
-6.8055226e-02 5.9337639e-01 0.0000000e+00 
-7.4227780e-02 5.9239870e-01 0.0000000e+00 
-8.0400527e-02 5.9142228e-01 0.0000000e+00 
-8.6573851e-02 5.9044697e-01 0.0000000e+00 
-6.9351562e-02 6.0161238e-01 0.0000000e+00 
-7.5528554e-02 6.0063338e-01 0.0000000e+00 
-8.1705705e-02 5.9965556e-01 0.0000000e+00 
-8.7883420e-02 5.9867882e-01 0.0000000e+00 
-7.0650213e-02 6.0985395e-01 0.0000000e+00 
-7.6831305e-02 6.0887366e-01 0.0000000e+00 
-8.3012562e-02 6.0789448e-01 0.0000000e+00 
-8.9194326e-02 6.0691626e-01 0.0000000e+00 
-7.1950941e-02 6.1810057e-01 0.0000000e+00 
-7.8135905e-02 6.1711914e-01 0.0000000e+00 
-8.4321005e-02 6.1613874e-01 0.0000000e+00 
-9.0506600e-02 6.1515928e-01 0.0000000e+00 
-7.3253702e-02 6.2635206e-01 0.0000000e+00 
-7.9442233e-02 6.2536950e-01 0.0000000e+00 
-8.5630908e-02 6.2438791e-01 0.0000000e+00 
-9.1820025e-02 6.2340716e-01 0.0000000e+00 
-7.4558270e-02 6.3460794e-01 0.0000000e+00 
-8.0750174e-02 6.3362439e-01 0.0000000e+00 
-8.6942192e-02 6.3264174e-01 0.0000000e+00 
-9.3134645e-02 6.3165991e-01 0.0000000e+00 
-7.5864619e-02 6.4286805e-01 0.0000000e+00 
-8.2059619e-02 6.4188352e-01 0.0000000e+00 
-8.8254745e-02 6.4089983e-01 0.0000000e+00 
-9.4450254e-02 6.3991686e-01 0.0000000e+00 
-7.7172536e-02 6.5113195e-01 0.0000000e+00 
-8.3370468e-02 6.5014657e-01 0.0000000e+00 
-8.9568498e-02 6.4916196e-01 0.0000000e+00 
-9.5766907e-02 6.4817806e-01 0.0000000e+00 
-7.8482008e-02 6.5939955e-01 0.0000000e+00 
-8.4682625e-02 6.5841330e-01 0.0000000e+00 
-9.0883354e-02 6.5742779e-01 0.0000000e+00 
-9.7084413e-02 6.5644290e-01 0.0000000e+00 
-7.9792835e-02 6.6767043e-01 0.0000000e+00 
-8.5996002e-02 6.6668344e-01 0.0000000e+00 
-9.2199252e-02 6.6569713e-01 0.0000000e+00 
-9.8402833e-02 6.6471144e-01 0.0000000e+00 
-8.1105020e-02 6.7594452e-01 0.0000000e+00 
-8.7310514e-02 6.7495678e-01 0.0000000e+00 
-9.3516107e-02 6.7396967e-01 0.0000000e+00 
-9.9721990e-02 6.7298312e-01 0.0000000e+00 
-8.2418377e-02 6.8422144e-01 0.0000000e+00 
-8.8626080e-02 6.8323307e-01 0.0000000e+00 
-9.4833873e-02 6.8224528e-01 0.0000000e+00 
-1.0104195e-01 6.8125803e-01 0.0000000e+00 
-8.3732876e-02 6.9250115e-01 0.0000000e+00 
-8.9942649e-02 6.9151213e-01 0.0000000e+00 
-9.6152500e-02 6.9052367e-01 0.0000000e+00 
-1.0236259e-01 6.8953573e-01 0.0000000e+00 
-8.5048446e-02 7.0078345e-01 0.0000000e+00 
-9.1260125e-02 6.9979381e-01 0.0000000e+00 