# vtk DataFile Version 4.0
vtk output
ASCII
DATASET UNSTRUCTURED_GRID
POINTS 604 float
5.5000000e+00 5.9700000e+00 0.0000000e+00 
5.5000000e+00 5.9900000e+00 0.0000000e+00 
5.5266667e+00 5.9700000e+00 0.0000000e+00 
5.5266667e+00 5.9900000e+00 0.0000000e+00 
5.5000000e+00 6.0100000e+00 0.0000000e+00 
5.5266667e+00 6.0100000e+00 0.0000000e+00 
5.5533333e+00 5.9700000e+00 0.0000000e+00 
5.5533333e+00 5.9900000e+00 0.0000000e+00 
5.5000000e+00 6.0300000e+00 0.0000000e+00 
5.5266667e+00 6.0300000e+00 0.0000000e+00 
5.5533333e+00 6.0100000e+00 0.0000000e+00 
5.5800000e+00 5.9700000e+00 0.0000000e+00 
5.5533333e+00 6.0300000e+00 0.0000000e+00 
5.5800000e+00 5.9900000e+00 0.0000000e+00 
5.5800000e+00 6.0100000e+00 0.0000000e+00 
5.5800000e+00 6.0300000e+00 0.0000000e+00 
5.6066667e+00 5.9700000e+00 0.0000000e+00 
5.6066667e+00 5.9900000e+00 0.0000000e+00 
5.6066667e+00 6.0100000e+00 0.0000000e+00 
5.6066667e+00 6.0300000e+00 0.0000000e+00 
5.6333333e+00 5.9700000e+00 0.0000000e+00 
5.6333333e+00 5.9900000e+00 0.0000000e+00 
5.6333333e+00 6.0100000e+00 0.0000000e+00 
5.6333333e+00 6.0300000e+00 0.0000000e+00 
5.6600000e+00 5.9700000e+00 0.0000000e+00 
5.6600000e+00 5.9900000e+00 0.0000000e+00 
5.6600000e+00 6.0100000e+00 0.0000000e+00 
5.6600000e+00 6.0300000e+00 0.0000000e+00 
5.6866667e+00 5.9700000e+00 0.0000000e+00 
5.6866667e+00 5.9900000e+00 0.0000000e+00 
5.6866667e+00 6.0100000e+00 0.0000000e+00 
5.6866667e+00 6.0300000e+00 0.0000000e+00 
5.7133333e+00 5.9700000e+00 0.0000000e+00 
5.7133333e+00 5.9900000e+00 0.0000000e+00 
5.7133333e+00 6.0100000e+00 0.0000000e+00 
5.7133333e+00 6.0300000e+00 0.0000000e+00 
5.7400000e+00 5.9700000e+00 0.0000000e+00 
5.7400000e+00 5.9900000e+00 0.0000000e+00 
5.7400000e+00 6.0100000e+00 0.0000000e+00 
5.7400000e+00 6.0300000e+00 0.0000000e+00 
5.7666667e+00 5.9700000e+00 0.0000000e+00 
5.7666667e+00 5.9900000e+00 0.0000000e+00 
5.7666667e+00 6.0100000e+00 0.0000000e+00 
5.7666667e+00 6.0300000e+00 0.0000000e+00 
5.7933333e+00 5.9700000e+00 0.0000000e+00 
5.7933333e+00 5.9900000e+00 0.0000000e+00 
5.7933333e+00 6.0100000e+00 0.0000000e+00 
5.7933333e+00 6.0300000e+00 0.0000000e+00 
5.8200000e+00 5.9700000e+00 0.0000000e+00 
5.8200000e+00 5.9900000e+00 0.0000000e+00 
5.8200000e+00 6.0100000e+00 0.0000000e+00 
5.8200000e+00 6.0300000e+00 0.0000000e+00 
5.8466667e+00 5.9700000e+00 0.0000000e+00 
5.8466667e+00 5.9900000e+00 0.0000000e+00 
5.8466667e+00 6.0100000e+00 0.0000000e+00 
5.8466667e+00 6.0300000e+00 0.0000000e+00 
5.8733333e+00 5.9700000e+00 0.0000000e+00 
5.8733333e+00 5.9900000e+00 0.0000000e+00 
5.8733333e+00 6.0100000e+00 0.0000000e+00 
5.8733333e+00 6.0300000e+00 0.0000000e+00 
5.9000000e+00 5.9700000e+00 0.0000000e+00 
5.9000000e+00 5.9900000e+00 0.0000000e+00 
5.9000000e+00 6.0100000e+00 0.0000000e+00 
5.9000000e+00 6.0300000e+00 0.0000000e+00 
5.9266667e+00 5.9700000e+00 0.0000000e+00 
5.9266667e+00 5.9900000e+00 0.0000000e+00 
5.9266667e+00 6.0100000e+00 0.0000000e+00 
5.9266667e+00 6.0300000e+00 0.0000000e+00 
5.9533333e+00 5.9700000e+00 0.0000000e+00 
5.9533333e+00 5.9900000e+00 0.0000000e+00 
5.9533333e+00 6.0100000e+00 0.0000000e+00 
5.9533333e+00 6.0300000e+00 0.0000000e+00 
5.9800000e+00 5.9700000e+00 0.0000000e+00 
5.9800000e+00 5.9900000e+00 0.0000000e+00 
5.9800000e+00 6.0100000e+00 0.0000000e+00 
5.9800000e+00 6.0300000e+00 0.0000000e+00 
6.0066667e+00 5.9700000e+00 0.0000000e+00 
6.0066667e+00 5.9900000e+00 0.0000000e+00 
6.0066667e+00 6.0100000e+00 0.0000000e+00 
6.0066667e+00 6.0300000e+00 0.0000000e+00 
6.0333333e+00 5.9700000e+00 0.0000000e+00 
6.0333333e+00 5.9900000e+00 0.0000000e+00 
6.0333333e+00 6.0100000e+00 0.0000000e+00 
6.0333333e+00 6.0300000e+00 0.0000000e+00 
6.0600000e+00 5.9700000e+00 0.0000000e+00 
6.0600000e+00 5.9900000e+00 0.0000000e+00 
6.0600000e+00 6.0100000e+00 0.0000000e+00 
6.0600000e+00 6.0300000e+00 0.0000000e+00 
6.0866667e+00 5.9700000e+00 0.0000000e+00 
6.0866667e+00 5.9900000e+00 0.0000000e+00 
6.0866667e+00 6.0100000e+00 0.0000000e+00 
6.0866667e+00 6.0300000e+00 0.0000000e+00 
6.1133333e+00 5.9700000e+00 0.0000000e+00 
6.1133333e+00 5.9900000e+00 0.0000000e+00 
6.1133333e+00 6.0100000e+00 0.0000000e+00 
6.1133333e+00 6.0300000e+00 0.0000000e+00 
6.1400000e+00 5.9700000e+00 0.0000000e+00 
6.1400000e+00 5.9900000e+00 0.0000000e+00 
6.1400000e+00 6.0100000e+00 0.0000000e+00 
6.1400000e+00 6.0300000e+00 0.0000000e+00 
6.1666667e+00 5.9700000e+00 0.0000000e+00 
6.1666667e+00 5.9900000e+00 0.0000000e+00 
6.1666667e+00 6.0100000e+00 0.0000000e+00 
6.1666667e+00 6.0300000e+00 0.0000000e+00 
6.1933333e+00 5.9700000e+00 0.0000000e+00 
6.1933333e+00 5.9900000e+00 0.0000000e+00 
6.1933333e+00 6.0100000e+00 0.0000000e+00 
6.1933333e+00 6.0300000e+00 0.0000000e+00 
6.2200000e+00 5.9700000e+00 0.0000000e+00 
6.2200000e+00 5.9900000e+00 0.0000000e+00 
6.2200000e+00 6.0100000e+00 0.0000000e+00 
6.2200000e+00 6.0300000e+00 0.0000000e+00 
6.2466667e+00 5.9700000e+00 0.0000000e+00 
6.2466667e+00 5.9900000e+00 0.0000000e+00 
6.2466667e+00 6.0100000e+00 0.0000000e+00 
6.2466667e+00 6.0300000e+00 0.0000000e+00 
6.2733333e+00 5.9700000e+00 0.0000000e+00 
6.2733333e+00 5.9900000e+00 0.0000000e+00 
6.2733333e+00 6.0100000e+00 0.0000000e+00 
6.2733333e+00 6.0300000e+00 0.0000000e+00 
6.3000000e+00 5.9700000e+00 0.0000000e+00 
6.3000000e+00 5.9900000e+00 0.0000000e+00 
6.3000000e+00 6.0100000e+00 0.0000000e+00 
6.3000000e+00 6.0300000e+00 0.0000000e+00 
6.3266667e+00 5.9700000e+00 0.0000000e+00 
6.3266667e+00 5.9900000e+00 0.0000000e+00 
6.3266667e+00 6.0100000e+00 0.0000000e+00 
6.3266667e+00 6.0300000e+00 0.0000000e+00 
6.3533333e+00 5.9700000e+00 0.0000000e+00 
6.3533333e+00 5.9900000e+00 0.0000000e+00 
6.3533333e+00 6.0100000e+00 0.0000000e+00 
6.3533333e+00 6.0300000e+00 0.0000000e+00 
6.3800000e+00 5.9700000e+00 0.0000000e+00 
6.3800000e+00 5.9900000e+00 0.0000000e+00 
6.3800000e+00 6.0100000e+00 0.0000000e+00 
6.3800000e+00 6.0300000e+00 0.0000000e+00 
6.4066667e+00 5.9700000e+00 0.0000000e+00 
6.4066667e+00 5.9900000e+00 0.0000000e+00 
6.4066667e+00 6.0100000e+00 0.0000000e+00 
6.4066667e+00 6.0300000e+00 0.0000000e+00 
6.4333333e+00 5.9700000e+00 0.0000000e+00 
6.4333333e+00 5.9900000e+00 0.0000000e+00 
6.4333333e+00 6.0100000e+00 0.0000000e+00 
6.4333333e+00 6.0300000e+00 0.0000000e+00 
6.4600000e+00 5.9700000e+00 0.0000000e+00 
6.4600000e+00 5.9900000e+00 0.0000000e+00 
6.4600000e+00 6.0100000e+00 0.0000000e+00 
6.4600000e+00 6.0300000e+00 0.0000000e+00 
6.4866667e+00 5.9700000e+00 0.0000000e+00 
6.4866667e+00 5.9900000e+00 0.0000000e+00 
6.4866667e+00 6.0100000e+00 0.0000000e+00 
6.4866667e+00 6.0300000e+00 0.0000000e+00 
6.5133333e+00 5.9700000e+00 0.0000000e+00 
6.5133333e+00 5.9900000e+00 0.0000000e+00 
6.5133333e+00 6.0100000e+00 0.0000000e+00 
6.5133333e+00 6.0300000e+00 0.0000000e+00 
6.5400000e+00 5.9700000e+00 0.0000000e+00 
6.5400000e+00 5.9900000e+00 0.0000000e+00 
6.5400000e+00 6.0100000e+00 0.0000000e+00 
6.5400000e+00 6.0300000e+00 0.0000000e+00 
6.5666667e+00 5.9700000e+00 0.0000000e+00 
6.5666667e+00 5.9900000e+00 0.0000000e+00 
6.5666667e+00 6.0100000e+00 0.0000000e+00 
6.5666667e+00 6.0300000e+00 0.0000000e+00 
6.5933333e+00 5.9700000e+00 0.0000000e+00 
6.5933333e+00 5.9900000e+00 0.0000000e+00 
6.5933333e+00 6.0100000e+00 0.0000000e+00 
6.5933333e+00 6.0300000e+00 0.0000000e+00 
6.6200000e+00 5.9700000e+00 0.0000000e+00 
6.6200000e+00 5.9900000e+00 0.0000000e+00 
6.6200000e+00 6.0100000e+00 0.0000000e+00 
6.6200000e+00 6.0300000e+00 0.0000000e+00 
6.6466667e+00 5.9700000e+00 0.0000000e+00 
6.6466667e+00 5.9900000e+00 0.0000000e+00 
6.6466667e+00 6.0100000e+00 0.0000000e+00 
6.6466667e+00 6.0300000e+00 0.0000000e+00 
6.6733333e+00 5.9700000e+00 0.0000000e+00 
6.6733333e+00 5.9900000e+00 0.0000000e+00 
6.6733333e+00 6.0100000e+00 0.0000000e+00 
6.6733333e+00 6.0300000e+00 0.0000000e+00 
6.7000000e+00 5.9700000e+00 0.0000000e+00 
6.7000000e+00 5.9900000e+00 0.0000000e+00 
6.7000000e+00 6.0100000e+00 0.0000000e+00 
6.7000000e+00 6.0300000e+00 0.0000000e+00 
6.7266667e+00 5.9700000e+00 0.0000000e+00 
6.7266667e+00 5.9900000e+00 0.0000000e+00 
6.7266667e+00 6.0100000e+00 0.0000000e+00 
6.7266667e+00 6.0300000e+00 0.0000000e+00 
6.7533333e+00 5.9700000e+00 0.0000000e+00 
6.7533333e+00 5.9900000e+00 0.0000000e+00 
6.7533333e+00 6.0100000e+00 0.0000000e+00 
6.7533333e+00 6.0300000e+00 0.0000000e+00 
6.7800000e+00 5.9700000e+00 0.0000000e+00 
6.7800000e+00 5.9900000e+00 0.0000000e+00 
6.7800000e+00 6.0100000e+00 0.0000000e+00 
6.7800000e+00 6.0300000e+00 0.0000000e+00 
6.8066667e+00 5.9700000e+00 0.0000000e+00 
6.8066667e+00 5.9900000e+00 0.0000000e+00 
6.8066667e+00 6.0100000e+00 0.0000000e+00 
6.8066667e+00 6.0300000e+00 0.0000000e+00 
6.8333333e+00 5.9700000e+00 0.0000000e+00 
6.8333333e+00 5.9900000e+00 0.0000000e+00 
6.8333333e+00 6.0100000e+00 0.0000000e+00 
6.8333333e+00 6.0300000e+00 0.0000000e+00 
6.8600000e+00 5.9700000e+00 0.0000000e+00 
6.8600000e+00 5.9900000e+00 0.0000000e+00 
6.8600000e+00 6.0100000e+00 0.0000000e+00 
6.8600000e+00 6.0300000e+00 0.0000000e+00 
6.8866667e+00 5.9700000e+00 0.0000000e+00 
6.8866667e+00 5.9900000e+00 0.0000000e+00 
6.8866667e+00 6.0100000e+00 0.0000000e+00 
6.8866667e+00 6.0300000e+00 0.0000000e+00 
6.9133333e+00 5.9700000e+00 0.0000000e+00 
6.9133333e+00 5.9900000e+00 0.0000000e+00 
6.9133333e+00 6.0100000e+00 0.0000000e+00 
6.9133333e+00 6.0300000e+00 0.0000000e+00 
6.9400000e+00 5.9700000e+00 0.0000000e+00 
6.9400000e+00 5.9900000e+00 0.0000000e+00 
6.9400000e+00 6.0100000e+00 0.0000000e+00 
6.9400000e+00 6.0300000e+00 0.0000000e+00 
6.9666667e+00 5.9700000e+00 0.0000000e+00 
6.9666667e+00 5.9900000e+00 0.0000000e+00 
6.9666667e+00 6.0100000e+00 0.0000000e+00 
6.9666667e+00 6.0300000e+00 0.0000000e+00 
6.9933333e+00 5.9700000e+00 0.0000000e+00 
6.9933333e+00 5.9900000e+00 0.0000000e+00 
6.9933333e+00 6.0100000e+00 0.0000000e+00 
6.9933333e+00 6.0300000e+00 0.0000000e+00 
7.0200000e+00 5.9700000e+00 0.0000000e+00 
7.0200000e+00 5.9900000e+00 0.0000000e+00 
[...]
POINT_DATA 604
FIELD FieldData 2
DISPLACEMENT 3 604  float
0.0000000e+00 0.0000000e+00 0.0000000e+00 
0.0000000e+00 0.0000000e+00 0.0000000e+00 
1.1605217e-04 7.0168645e-05 0.0000000e+00 
3.6724826e-05 4.5499798e-05 0.0000000e+00 
0.0000000e+00 0.0000000e+00 0.0000000e+00 
-3.7363881e-05 4.5290601e-05 0.0000000e+00 
2.3389096e-04 2.2608174e-04 0.0000000e+00 
7.7335849e-05 2.0520149e-04 0.0000000e+00 
0.0000000e+00 0.0000000e+00 0.0000000e+00 
-1.1682078e-04 6.9594347e-05 0.0000000e+00 
-7.9421902e-05 2.0450650e-04 0.0000000e+00 
3.4955770e-04 4.9024541e-04 0.0000000e+00 
-2.3629052e-04 2.2410106e-04 0.0000000e+00 
1.1461415e-04 4.6840490e-04 0.0000000e+00 
-1.1977029e-04 4.6694760e-04 0.0000000e+00 
-3.5520727e-04 4.8593454e-04 0.0000000e+00 
4.6232214e-04 8.5796674e-04 0.0000000e+00 
1.5042434e-04 8.3541658e-04 0.0000000e+00 
-1.6109267e-04 8.3292026e-04 0.0000000e+00 
-4.7362819e-04 8.5055625e-04 0.0000000e+00 
5.7189252e-04 1.3281910e-03 0.0000000e+00 
1.8407347e-04 1.3045754e-03 0.0000000e+00 
-2.0343256e-04 1.3007423e-03 0.0000000e+00 
-5.9203372e-04 1.3167373e-03 0.0000000e+00 
6.7791129e-04 1.8993741e-03 0.0000000e+00 
2.1524032e-04 1.8744581e-03 0.0000000e+00 
-2.4719094e-04 1.8690499e-03 0.0000000e+00 
-7.1078452e-04 1.8832022e-03 0.0000000e+00 
7.8004797e-04 2.5701229e-03 0.0000000e+00 
2.4357538e-04 2.5436387e-03 0.0000000e+00 
-2.9272635e-04 2.5363877e-03 0.0000000e+00 
-8.3023024e-04 2.5484185e-03 0.0000000e+00 
8.7798459e-04 3.3390178e-03 0.0000000e+00 
2.6876791e-04 3.3107053e-03 0.0000000e+00 
-3.4034824e-04 3.3013559e-03 0.0000000e+00 
-9.5073060e-04 3.3109921e-03 0.0000000e+00 
9.7143183e-04 4.2045979e-03 0.0000000e+00 
2.9050120e-04 4.1742572e-03 0.0000000e+00 
-3.9039123e-04 4.1626059e-03 0.0000000e+00 
-1.0726040e-03 4.1696903e-03 0.0000000e+00 
1.0600890e-03 5.1655411e-03 0.0000000e+00 
3.0848021e-04 5.1329173e-03 0.0000000e+00 
-4.4315438e-04 5.1187229e-03 0.0000000e+00 
-1.1961606e-03 5.1229620e-03 0.0000000e+00 
1.1436926e-03 6.2203789e-03 0.0000000e+00 
3.2242242e-04 6.1852979e-03 0.0000000e+00 
-4.9892837e-04 6.1683730e-03 0.0000000e+00 
-1.3216986e-03 6.1696392e-03 0.0000000e+00 
1.2219695e-03 7.3678160e-03 0.0000000e+00 
3.3206205e-04 7.3300393e-03 0.0000000e+00 
-5.5798518e-04 7.3101637e-03 0.0000000e+00 
-1.4494976e-03 7.3081797e-03 0.0000000e+00 
1.2946866e-03 8.6063942e-03 0.0000000e+00 
3.3714362e-04 8.5657723e-03 0.0000000e+00 
-6.2058861e-04 8.5427805e-03 0.0000000e+00 
-1.5798290e-03 8.5374430e-03 0.0000000e+00 
1.3615966e-03 9.9348478e-03 0.0000000e+00 
3.3742822e-04 9.8911581e-03 0.0000000e+00 
-6.8698355e-04 9.8648484e-03 0.0000000e+00 
-1.7129436e-03 9.8558963e-03 0.0000000e+00 
1.4224937e-03 1.1351730e-02 0.0000000e+00 
3.3268687e-04 1.1304846e-02 0.0000000e+00 
-7.5740782e-04 1.1275074e-02 0.0000000e+00 
-1.8490892e-03 1.1262427e-02 0.0000000e+00 
1.4771557e-03 1.2855803e-02 0.0000000e+00 
3.2270602e-04 1.2805518e-02 0.0000000e+00 
-8.3208063e-04 1.2772099e-02 0.0000000e+00 
-1.9884888e-03 1.2755511e-02 0.0000000e+00 
1.5254020e-03 1.4445634e-02 0.0000000e+00 
3.0728197e-04 1.4391842e-02 0.0000000e+00 
-9.1121504e-04 1.4354651e-02 0.0000000e+00 
-2.1313677e-03 1.4334064e-02 0.0000000e+00 
1.5670350e-03 1.6120012e-02 0.0000000e+00 
2.8622506e-04 1.6062521e-02 0.0000000e+00 
-9.9500603e-04 1.6021391e-02 0.0000000e+00 
-2.2779223e-03 1.5996575e-02 0.0000000e+00 
1.6018978e-03 1.7877517e-02 0.0000000e+00 
2.5935570e-04 1.7816243e-02 0.0000000e+00 
-1.0836431e-03 1.7771067e-02 0.0000000e+00 
-2.4283571e-03 1.7741982e-02 0.0000000e+00 
1.6298143e-03 1.9716968e-02 0.0000000e+00 
2.2650762e-04 1.9651734e-02 0.0000000e+00 
-1.1772975e-03 1.9602358e-02 0.0000000e+00 
-2.5828442e-03 1.9568791e-02 0.0000000e+00 
1.6506494e-03 2.1636956e-02 0.0000000e+00 
1.8752405e-04 2.1567693e-02 0.0000000e+00 
-1.2761360e-03 2.1514039e-02 0.0000000e+00 
-2.7415700e-03 2.1475962e-02 0.0000000e+00 
1.6642642e-03 2.3636295e-02 0.0000000e+00 
1.4224943e-04 2.3562866e-02 0.0000000e+00 
-1.3803282e-03 2.3504802e-02 0.0000000e+00 
-2.9046788e-03 2.3462070e-02 0.0000000e+00 
1.6705295e-03 2.5713724e-02 0.0000000e+00 
9.0570294e-05 2.5636001e-02 0.0000000e+00 
-1.4899866e-03 2.5573406e-02 0.0000000e+00 
-3.0723439e-03 2.5525875e-02 0.0000000e+00 
1.6693444e-03 2.7867912e-02 0.0000000e+00 
3.2351414e-05 2.7785849e-02 0.0000000e+00 
-1.6052680e-03 2.7718666e-02 0.0000000e+00 
-3.2447109e-03 2.7666334e-02 0.0000000e+00 
1.6605851e-03 3.0097746e-02 0.0000000e+00 
-3.2525390e-05 3.0011203e-02 0.0000000e+00 
-1.7262915e-03 2.9939315e-02 0.0000000e+00 
-3.4218940e-03 2.9882004e-02 0.0000000e+00 
1.6441649e-03 3.2401885e-02 0.0000000e+00 
-1.0416544e-04 3.2310832e-02 0.0000000e+00 
-1.8531741e-03 3.2234186e-02 0.0000000e+00 
-3.6040378e-03 3.2171912e-02 0.0000000e+00 
1.6199799e-03 3.4779233e-02 0.0000000e+00 
-1.8266732e-04 3.4683542e-02 0.0000000e+00 
-1.9860186e-03 3.4602039e-02 0.0000000e+00 
-3.7912340e-03 3.4534637e-02 0.0000000e+00 
1.5879630e-03 3.7228470e-02 0.0000000e+00 
-2.6811904e-04 3.7128125e-02 0.0000000e+00 
-2.1249246e-03 3.7041724e-02 0.0000000e+00 
-3.9836099e-03 3.6969224e-02 0.0000000e+00 
1.5480278e-03 3.9748522e-02 0.0000000e+00 
-3.6060186e-04 3.9643410e-02 0.0000000e+00 
-2.2699774e-03 3.9552025e-02 0.0000000e+00 
-4.1812378e-03 3.9474275e-02 0.0000000e+00 
1.5001241e-03 4.2338093e-02 0.0000000e+00 
-4.6018667e-04 4.2228208e-02 0.0000000e+00 
-2.4212595e-03 4.2131811e-02 0.0000000e+00 
-4.3842302e-03 4.2048852e-02 0.0000000e+00 
1.4441820e-03 4.4996126e-02 0.0000000e+00 
-5.6693835e-04 4.4881369e-02 0.0000000e+00 
-2.5788400e-03 4.4779887e-02 0.0000000e+00 
-4.5926411e-03 4.4691582e-02 0.0000000e+00 
1.3801675e-03 4.7721353e-02 0.0000000e+00 
-6.8091179e-04 4.7601727e-02 0.0000000e+00 
-2.7427854e-03 4.7495143e-02 0.0000000e+00 
-4.8065687e-03 4.7401542e-02 0.0000000e+00 
1.3080257e-03 5.0512733e-02 0.0000000e+00 
-8.0215648e-04 5.0388153e-02 0.0000000e+00 
-2.9131494e-03 5.0276404e-02 0.0000000e+00 
-5.0260502e-03 5.0177384e-02 0.0000000e+00 
1.2277381e-03 5.3369022e-02 0.0000000e+00 
-9.3071237e-04 5.3239502e-02 0.0000000e+00 
-3.0899835e-03 5.3122582e-02 0.0000000e+00 
-5.2511702e-03 5.3018201e-02 0.0000000e+00 
1.1392629e-03 5.6289199e-02 0.0000000e+00 
-1.0666138e-03 5.6154665e-02 0.0000000e+00 
-3.2733265e-03 5.6032523e-02 0.0000000e+00 
-5.4819514e-03 5.5922671e-02 0.0000000e+00 
1.0425948e-03 5.9272045e-02 0.0000000e+00 
-1.2098865e-03 5.9132517e-02 0.0000000e+00 
-3.4632156e-03 5.9005164e-02 0.0000000e+00 
-5.7184666e-03 5.8889902e-02 0.0000000e+00 
9.3772013e-04 6.2316531e-02 0.0000000e+00 
-1.3605594e-03 6.2171966e-02 0.0000000e+00 
-3.6596928e-03 6.2039366e-02 0.0000000e+00 
-5.9607253e-03 6.1918646e-02 0.0000000e+00 
8.2463241e-04 6.5421564e-02 0.0000000e+00 
-1.5186286e-03 6.5271932e-02 0.0000000e+00 
-3.8627540e-03 6.5134056e-02 0.0000000e+00 
-6.2087796e-03 6.5007831e-02 0.0000000e+00 
7.0334645e-04 6.8586012e-02 0.0000000e+00 
-1.6841105e-03 6.8431339e-02 0.0000000e+00 
-4.0724375e-03 6.8288210e-02 0.0000000e+00 
-6.4626682e-03 6.8156549e-02 0.0000000e+00 
5.7385040e-04 7.1808899e-02 0.0000000e+00 
-1.8570105e-03 7.1649144e-02 0.0000000e+00 
-4.2887497e-03 7.1500736e-02 0.0000000e+00 
-6.7223812e-03 7.1363560e-02 0.0000000e+00 
4.3616917e-04 7.5089094e-02 0.0000000e+00 
-2.0373249e-03 7.4924291e-02 0.0000000e+00 
-4.5116981e-03 7.4770624e-02 0.0000000e+00 
-6.9879641e-03 7.4628014e-02 0.0000000e+00 
2.9030227e-04 7.8425635e-02 0.0000000e+00 
-2.2250461e-03 7.8255751e-02 0.0000000e+00 
-4.7412805e-03 7.8096811e-02 0.0000000e+00 
-7.2593939e-03 7.7948698e-02 0.0000000e+00 
1.3628733e-04 8.1817415e-02 0.0000000e+00 
-2.4201610e-03 8.1642492e-02 0.0000000e+00 
-4.9774939e-03 8.1478307e-02 0.0000000e+00 
-7.5367046e-03 8.1324775e-02 0.0000000e+00 
-2.5866782e-05 8.5263490e-02 0.0000000e+00 
-2.6226515e-03 8.5083506e-02 0.0000000e+00 
-5.2203259e-03 8.4914069e-02 0.0000000e+00 
-7.8198624e-03 8.4755061e-02 0.0000000e+00 
-1.9611175e-04 8.8762782e-02 0.0000000e+00 
-2.8324948e-03 8.8577781e-02 0.0000000e+00 
-5.4697636e-03 8.8403128e-02 0.0000000e+00 
-8.1088916e-03 8.8238732e-02 0.0000000e+00 
-3.7443013e-04 9.2314360e-02 0.0000000e+00 
-3.0496629e-03 9.2124331e-02 0.0000000e+00 
-5.7257851e-03 9.1944461e-02 0.0000000e+00 
-8.4037488e-03 9.1774630e-02 0.0000000e+00 
-5.6076359e-04 9.5917174e-02 0.0000000e+00 
-3.2741241e-03 9.5722165e-02 0.0000000e+00 
-5.9883681e-03 9.5537121e-02 0.0000000e+00 
-8.7044491e-03 9.5361948e-02 0.0000000e+00 
-7.5508688e-04 9.9570309e-02 0.0000000e+00 
-3.5058415e-03 9.9370317e-02 0.0000000e+00 
-6.2574820e-03 9.9180106e-02 0.0000000e+00 
-9.0109400e-03 9.8999552e-02 0.0000000e+00 
-9.5733237e-04 1.0327274e-01 0.0000000e+00 
-3.7447754e-03 1.0306782e-01 0.0000000e+00 
-6.5330960e-03 1.0287249e-01 0.0000000e+00 
-9.3232283e-03 1.0268665e-01 0.0000000e+00 
-1.1674686e-03 1.0702357e-01 0.0000000e+00 
-3.9908798e-03 1.0681372e-01 0.0000000e+00 
-6.8151711e-03 1.0661329e-01 0.0000000e+00 
-9.6412539e-03 1.0642213e-01 0.0000000e+00 
-1.3854198e-03 1.1082180e-01 0.0000000e+00 
-4.2441075e-03 1.1060708e-01 0.0000000e+00 
-7.1036687e-03 1.1040160e-01 0.0000000e+00 
-9.9650163e-03 1.1020523e-01 0.0000000e+00 
-1.6111346e-03 1.1466653e-01 0.0000000e+00 
-4.5044100e-03 1.1444697e-01 0.0000000e+00 
-7.3985541e-03 1.1423645e-01 0.0000000e+00 
-1.0294453e-02 1.1403488e-01 0.0000000e+00 
-1.8445484e-03 1.1855685e-01 0.0000000e+00 
-4.7717211e-03 1.1833246e-01 0.0000000e+00 
-7.6997611e-03 1.1811695e-01 0.0000000e+00 
-1.0629542e-02 1.1791018e-01 0.0000000e+00 
-2.0855773e-03 1.2249181e-01 0.0000000e+00 
-5.0459890e-03 1.2226267e-01 0.0000000e+00 
-8.0072570e-03 1.2204222e-01 0.0000000e+00 
-1.0970257e-02 1.2183036e-01 0.0000000e+00 
-2.3341768e-03 1.2647058e-01 0.0000000e+00 
-5.3271531e-03 1.2623670e-01 0.0000000e+00 
-8.3209851e-03 1.2601134e-01 0.0000000e+00 
-1.1316525e-02 1.2579438e-01 0.0000000e+00 
-2.5902541e-03 1.3049223e-01 0.0000000e+00 
-5.6151519e-03 1.3025367e-01 0.0000000e+00 
-8.6408911e-03 1.3002346e-01 0.0000000e+00 
-1.1668329e-02 1.2980150e-01 0.0000000e+00 
-2.8537596e-03 1.3455591e-01 0.0000000e+00 
-5.9099172e-03 1.3431271e-01 0.0000000e+00 
-8.9669148e-03 1.3407768e-01 0.0000000e+00 
-1.2025586e-02 1.3385071e-01 0.0000000e+00 
-3.1245931e-03 1.3866074e-01 0.0000000e+00 
-6.2113827e-03 1.3841296e-01 0.0000000e+00 
-9.2989966e-03 1.3817318e-01 0.0000000e+00 
-1.2388274e-02 1.3794131e-01 0.0000000e+00 
-3.4027010e-03 1.4280590e-01 0.0000000e+00 
-6.5194748e-03 1.4255356e-01 0.0000000e+00 
-9.6370711e-03 1.4230907e-01 0.0000000e+00 
-1.2756304e-02 1.4207230e-01 0.0000000e+00 
-3.6879773e-03 1.4699050e-01 0.0000000e+00 
-6.8341228e-03 1.4673368e-01 0.0000000e+00 
-9.9810736e-03 1.4648454e-01 0.0000000e+00 
-1.3129650e-02 1.4624298e-01 0.0000000e+00 
-3.9803647e-03 1.5121375e-01 0.0000000e+00 
-7.1552479e-03 1.5095248e-01 0.0000000e+00 
-1.0330934e-02 1.5069874e-01 0.0000000e+00 
-1.3508218e-02 1.5045239e-01 0.0000000e+00 
-4.2797521e-03 1.5547479e-01 0.0000000e+00 
-7.4827751e-03 1.5520915e-01 0.0000000e+00 
-1.0686583e-02 1.5495087e-01 0.0000000e+00 
-1.3891977e-02 1.5469984e-01 0.0000000e+00 
-4.5860787e-03 1.5977283e-01 0.0000000e+00 
-7.8166215e-03 1.5950286e-01 0.0000000e+00 
-1.1047946e-02 1.5924008e-01 0.0000000e+00 
-1.4280829e-02 1.5898439e-01 0.0000000e+00 
-4.8992289e-03 1.6410705e-01 0.0000000e+00 
-8.1567082e-03 1.6383281e-01 0.0000000e+00 
-1.1414949e-02 1.6356562e-01 0.0000000e+00 
-1.4674737e-02 1.6330537e-01 0.0000000e+00 
-5.2191396e-03 1.6847667e-01 0.0000000e+00 
-8.5029479e-03 1.6819821e-01 0.0000000e+00 
-1.1787516e-02 1.6792665e-01 0.0000000e+00 
-1.5073602e-02 1.6766185e-01 0.0000000e+00 
-5.5456916e-03 1.7288087e-01 0.0000000e+00 
-8.8552583e-03 1.7259828e-01 0.0000000e+00 
-1.2165567e-02 1.7232242e-01 0.0000000e+00 
-1.5477383e-02 1.7205319e-01 0.0000000e+00 
-5.8788057e-03 1.7731892e-01 0.0000000e+00 
-9.2135531e-03 1.7703223e-01 0.0000000e+00 
-1.2549032e-02 1.7675213e-01 0.0000000e+00 
-1.5885982e-02 1.7647852e-01 0.0000000e+00 
-6.2183838e-03 1.8179003e-01 0.0000000e+00 
-9.5777360e-03 1.8149930e-01 0.0000000e+00 
-1.2937814e-02 1.8121502e-01 0.0000000e+00 
-1.6299341e-02 1.8093706e-01 0.0000000e+00 
-6.5643077e-03 1.8629345e-01 0.0000000e+00 
-9.9477236e-03 1.8599876e-01 0.0000000e+00 
-1.3331845e-02 1.8571037e-01 0.0000000e+00 
-1.6717404e-02 1.8542818e-01 0.0000000e+00 
-6.9165104e-03 1.9082846e-01 0.0000000e+00 
-1.0323424e-02 1.9052986e-01 0.0000000e+00 
-1.3731040e-02 1.9023742e-01 0.0000000e+00 
-1.7140062e-02 1.8995101e-01 0.0000000e+00 
-7.2748661e-03 1.9539430e-01 0.0000000e+00 
-1.0704751e-02 1.9509188e-01 0.0000000e+00 
-1.4135314e-02 1.9479546e-01 0.0000000e+00 
-1.7567272e-02 1.9450495e-01 0.0000000e+00 
-7.6393057e-03 1.9999029e-01 0.0000000e+00 
-1.1091607e-02 1.9968408e-01 0.0000000e+00 
-1.4544584e-02 1.9938375e-01 0.0000000e+00 
-1.7998923e-02 1.9908916e-01 0.0000000e+00 
-8.0097003e-03 2.0461568e-01 0.0000000e+00 
-1.1483905e-02 2.0430577e-01 0.0000000e+00 
-1.4958762e-02 2.0400159e-01 0.0000000e+00 
-1.8434969e-02 2.0370304e-01 0.0000000e+00 
-8.3859796e-03 2.0926979e-01 0.0000000e+00 
-1.1881547e-02 2.0895623e-01 0.0000000e+00 
-1.5377762e-02 2.0864827e-01 0.0000000e+00 
-1.8875295e-02 2.0834578e-01 0.0000000e+00 
-8.7680128e-03 2.1395191e-01 0.0000000e+00 
-1.2284442e-02 2.1363478e-01 0.0000000e+00 
-1.5801496e-02 2.1332311e-01 0.0000000e+00 
-1.9319855e-02 2.1301679e-01 0.0000000e+00 
-9.1557284e-03 2.1866136e-01 0.0000000e+00 
-1.2692492e-02 2.1834072e-01 0.0000000e+00 
-1.6229875e-02 2.1802540e-01 0.0000000e+00 
-1.9768532e-02 2.1771529e-01 0.0000000e+00 
-9.5489941e-03 2.2339746e-01 0.0000000e+00 
-1.3105604e-02 2.2307338e-01 0.0000000e+00 
-1.6662811e-02 2.2275449e-01 0.0000000e+00 
-2.0221278e-02 2.2244070e-01 0.0000000e+00 
-9.9477376e-03 2.2815954e-01 0.0000000e+00 
-1.3523679e-02 2.2783209e-01 0.0000000e+00 
-1.7100213e-02 2.2750970e-01 0.0000000e+00 
-2.0677975e-02 2.2719225e-01 0.0000000e+00 
-1.0351825e-02 2.3294694e-01 0.0000000e+00 
-1.3946625e-02 2.3261619e-01 0.0000000e+00 
-1.7541992e-02 2.3229037e-01 0.0000000e+00 
-2.1138574e-02 2.3196938e-01 0.0000000e+00 
-1.0761185e-02 2.3775902e-01 0.0000000e+00 
-1.4374339e-02 2.3742503e-01 0.0000000e+00 
-1.7988056e-02 2.3709584e-01 0.0000000e+00 
-2.1602957e-02 2.3677135e-01 0.0000000e+00 
-1.1175682e-02 2.4259512e-01 0.0000000e+00 
-1.4806728e-02 2.4225796e-01 0.0000000e+00 
-1.8438315e-02 2.4192549e-01 0.0000000e+00 
-2.2071072e-02 2.4159760e-01 0.0000000e+00 
-1.1595233e-02 2.4745461e-01 0.0000000e+00 
-1.5243693e-02 2.4711436e-01 0.0000000e+00 
-1.8892683e-02 2.4677866e-01 0.0000000e+00 
-2.2542809e-02 2.4644743e-01 0.0000000e+00 
-1.2019728e-02 2.5233687e-01 0.0000000e+00 
-1.5685131e-02 2.5199358e-01 0.0000000e+00 
-1.9351058e-02 2.5165474e-01 0.0000000e+00 
-2.3018096e-02 2.5132022e-01 0.0000000e+00 
-1.2449041e-02 2.5724129e-01 0.0000000e+00 
-1.6130952e-02 2.5689505e-01 0.0000000e+00 
-1.9813361e-02 2.5655312e-01 0.0000000e+00 
-2.3496870e-02 2.5621542e-01 0.0000000e+00 
-1.2883101e-02 2.6216728e-01 0.0000000e+00 
-1.6581053e-02 2.6181814e-01 0.0000000e+00 
-2.0279500e-02 2.6147320e-01 0.0000000e+00 
-2.3979014e-02 2.6113236e-01 0.0000000e+00 
-1.3321774e-02 2.6711423e-01 0.0000000e+00 
-1.7035344e-02 2.6676227e-01 0.0000000e+00 
-2.0749384e-02 2.6641439e-01 0.0000000e+00 
-2.4464478e-02 2.6607051e-01 0.0000000e+00 
-1.3764991e-02 2.7208157e-01 0.0000000e+00 
-1.7493723e-02 2.7172685e-01 0.0000000e+00 
-2.1222923e-02 2.7137610e-01 0.0000000e+00 
-2.4953143e-02 2.7102922e-01 0.0000000e+00 
-1.4212616e-02 2.7706872e-01 0.0000000e+00 
-1.7956100e-02 2.7671131e-01 0.0000000e+00 
-2.1700025e-02 2.7635776e-01 0.0000000e+00 
-2.5444960e-02 2.7600798e-01 0.0000000e+00 
-1.4664580e-02 2.8207510e-01 0.0000000e+00 
-1.8422373e-02 2.8171507e-01 0.0000000e+00 
-2.2180604e-02 2.8135879e-01 0.0000000e+00 
-2.5939811e-02 2.8100616e-01 0.0000000e+00 
-1.5120749e-02 2.8710016e-01 0.0000000e+00 
-1.8892452e-02 2.8673758e-01 0.0000000e+00 
-2.2664566e-02 2.8637864e-01 0.0000000e+00 
-2.6437645e-02 2.8602325e-01 0.0000000e+00 
-1.5581054e-02 2.9214334e-01 0.0000000e+00 
-1.9366234e-02 2.9177827e-01 0.0000000e+00 
-2.3151824e-02 2.9141674e-01 0.0000000e+00 
-2.6938346e-02 2.9105864e-01 0.0000000e+00 
-1.6045362e-02 2.9720410e-01 0.0000000e+00 
-1.9843633e-02 2.9683662e-01 0.0000000e+00 
-2.3642286e-02 2.9647256e-01 0.0000000e+00 
-2.7441862e-02 2.9611184e-01 0.0000000e+00 
-1.6513605e-02 3.0228189e-01 0.0000000e+00 
-2.0324546e-02 3.0191206e-01 0.0000000e+00 
-2.4135867e-02 3.0154555e-01 0.0000000e+00 
-2.7948077e-02 3.0118227e-01 0.0000000e+00 
-1.6985649e-02 3.0737621e-01 0.0000000e+00 
-2.0808885e-02 3.0700409e-01 0.0000000e+00 
-2.4632474e-02 3.0663520e-01 0.0000000e+00 
-2.8456942e-02 3.0626943e-01 0.0000000e+00 
-1.7461429e-02 3.1248649e-01 0.0000000e+00 
-2.1296549e-02 3.1211217e-01 0.0000000e+00 
-2.5132022e-02 3.1174096e-01 0.0000000e+00 
-2.8968342e-02 3.1137276e-01 0.0000000e+00 
-1.7940812e-02 3.1761227e-01 0.0000000e+00 
-2.1787453e-02 3.1723579e-01 0.0000000e+00 
-2.5634422e-02 3.1686233e-01 0.0000000e+00 
-2.9482226e-02 3.1649179e-01 0.0000000e+00 
-1.8423722e-02 3.2275300e-01 0.0000000e+00 
-2.2281497e-02 3.2237443e-01 0.0000000e+00 
-2.6139591e-02 3.2199879e-01 0.0000000e+00 
-2.9998490e-02 3.2162598e-01 0.0000000e+00 
-1.8910056e-02 3.2790819e-01 0.0000000e+00 
-2.2778589e-02 3.2752761e-01 0.0000000e+00 
-2.6647436e-02 3.2714985e-01 0.0000000e+00 
-3.0517063e-02 3.2677481e-01 0.0000000e+00 
-1.9399694e-02 3.3307738e-01 0.0000000e+00 
-2.3278643e-02 3.3269484e-01 0.0000000e+00 
-2.7157880e-02 3.3231503e-01 0.0000000e+00 
-3.1037886e-02 3.3193786e-01 0.0000000e+00 
-1.9892573e-02 3.3826007e-01 0.0000000e+00 
-2.3781561e-02 3.3787564e-01 0.0000000e+00 
-2.7670838e-02 3.3749384e-01 0.0000000e+00 
-3.1560852e-02 3.3711458e-01 0.0000000e+00 
-2.0388565e-02 3.4345581e-01 0.0000000e+00 
-2.4287264e-02 3.4306954e-01 0.0000000e+00 
-2.8186225e-02 3.4268582e-01 0.0000000e+00 
-3.2085914e-02 3.4230456e-01 0.0000000e+00 
-2.0887611e-02 3.4866412e-01 0.0000000e+00 
-2.4795655e-02 3.4827609e-01 0.0000000e+00 
-2.8703962e-02 3.4789051e-01 0.0000000e+00 
-3.2612965e-02 3.4750729e-01 0.0000000e+00 
-2.1389583e-02 3.5388457e-01 0.0000000e+00 
-2.5306655e-02 3.5349483e-01 0.0000000e+00 
-2.9223963e-02 3.5310745e-01 0.0000000e+00 
-3.3141959e-02 3.5272236e-01 0.0000000e+00 
-2.1894424e-02 3.5911668e-01 0.0000000e+00 
-2.5820169e-02 3.5872530e-01 0.0000000e+00 
-2.9746152e-02 3.5833619e-01 0.0000000e+00 
-3.3672790e-02 3.5794926e-01 0.0000000e+00 
-2.2402008e-02 3.6436005e-01 0.0000000e+00 
-2.6336121e-02 3.6396707e-01 0.0000000e+00 
-3.0270445e-02 3.6357629e-01 0.0000000e+00 
-3.4205417e-02 3.6318762e-01 0.0000000e+00 
-2.2912279e-02 3.6961421e-01 0.0000000e+00 
-2.6854416e-02 3.6921971e-01 0.0000000e+00 
-3.0796766e-02 3.6882732e-01 0.0000000e+00 
-3.4739732e-02 3.6843694e-01 0.0000000e+00 
-2.3425114e-02 3.7487876e-01 0.0000000e+00 
-2.7374981e-02 3.7448279e-01 0.0000000e+00 
-3.1325035e-02 3.7408885e-01 0.0000000e+00 
-3.5275698e-02 3.7369686e-01 0.0000000e+00 
-2.3940458e-02 3.8015328e-01 0.0000000e+00 
-2.7897723e-02 3.7975590e-01 0.0000000e+00 
-3.1855177e-02 3.7936047e-01 0.0000000e+00 
-3.5813209e-02 3.7896689e-01 0.0000000e+00 
-2.4458190e-02 3.8543736e-01 0.0000000e+00 
-2.8422570e-02 3.8503863e-01 0.0000000e+00 
-3.2387114e-02 3.8464176e-01 0.0000000e+00 
-3.6352229e-02 3.8424668e-01 0.0000000e+00 
-2.4978257e-02 3.9073060e-01 0.0000000e+00 
-2.8949432e-02 3.9033057e-01 0.0000000e+00 
-3.2920774e-02 3.8993233e-01 0.0000000e+00 
-3.6892656e-02 3.8953579e-01 0.0000000e+00 
-2.5500541e-02 3.9603261e-01 0.0000000e+00 
-2.9478238e-02 3.9563134e-01 0.0000000e+00 
-3.3456081e-02 3.9523178e-01 0.0000000e+00 
-3.7434455e-02 3.9483385e-01 0.0000000e+00 
-2.6024980e-02 4.0134300e-01 0.0000000e+00 
-3.0008904e-02 4.0094054e-01 0.0000000e+00 
-3.3992968e-02 4.0053971e-01 0.0000000e+00 
-3.7977536e-02 4.0014045e-01 0.0000000e+00 
-2.6551485e-02 4.0666138e-01 0.0000000e+00 
-3.0541352e-02 4.0625779e-01 0.0000000e+00 