# vtk DataFile Version 4.0
vtk output
ASCII
DATASET UNSTRUCTURED_GRID
POINTS 604 float
5.5000000e+00 5.9700000e+00 0.0000000e+00 
5.5000000e+00 5.9900000e+00 0.0000000e+00 
5.5266667e+00 5.9700000e+00 0.0000000e+00 
5.5266667e+00 5.9900000e+00 0.0000000e+00 
5.5000000e+00 6.0100000e+00 0.0000000e+00 
5.5266667e+00 6.0100000e+00 0.0000000e+00 
5.5533333e+00 5.9700000e+00 0.0000000e+00 
5.5533333e+00 5.9900000e+00 0.0000000e+00 
5.5000000e+00 6.0300000e+00 0.0000000e+00 
5.5266667e+00 6.0300000e+00 0.0000000e+00 
5.5533333e+00 6.0100000e+00 0.0000000e+00 
5.5800000e+00 5.9700000e+00 0.0000000e+00 
5.5533333e+00 6.0300000e+00 0.0000000e+00 
5.5800000e+00 5.9900000e+00 0.0000000e+00 
5.5800000e+00 6.0100000e+00 0.0000000e+00 
5.5800000e+00 6.0300000e+00 0.0000000e+00 
5.6066667e+00 5.9700000e+00 0.0000000e+00 
5.6066667e+00 5.9900000e+00 0.0000000e+00 
5.6066667e+00 6.0100000e+00 0.0000000e+00 
5.6066667e+00 6.0300000e+00 0.0000000e+00 
5.6333333e+00 5.9700000e+00 0.0000000e+00 
5.6333333e+00 5.9900000e+00 0.0000000e+00 
5.6333333e+00 6.0100000e+00 0.0000000e+00 
5.6333333e+00 6.0300000e+00 0.0000000e+00 
5.6600000e+00 5.9700000e+00 0.0000000e+00 
5.6600000e+00 5.9900000e+00 0.0000000e+00 
5.6600000e+00 6.0100000e+00 0.0000000e+00 
5.6600000e+00 6.0300000e+00 0.0000000e+00 
5.6866667e+00 5.9700000e+00 0.0000000e+00 
5.6866667e+00 5.9900000e+00 0.0000000e+00 
5.6866667e+00 6.0100000e+00 0.0000000e+00 
5.6866667e+00 6.0300000e+00 0.0000000e+00 
5.7133333e+00 5.9700000e+00 0.0000000e+00 
5.7133333e+00 5.9900000e+00 0.0000000e+00 
5.7133333e+00 6.0100000e+00 0.0000000e+00 
5.7133333e+00 6.0300000e+00 0.0000000e+00 
5.7400000e+00 5.9700000e+00 0.0000000e+00 
5.7400000e+00 5.9900000e+00 0.0000000e+00 
5.7400000e+00 6.0100000e+00 0.0000000e+00 
5.7400000e+00 6.0300000e+00 0.0000000e+00 
5.7666667e+00 5.9700000e+00 0.0000000e+00 
5.7666667e+00 5.9900000e+00 0.0000000e+00 
5.7666667e+00 6.0100000e+00 0.0000000e+00 
5.7666667e+00 6.0300000e+00 0.0000000e+00 
5.7933333e+00 5.9700000e+00 0.0000000e+00 
5.7933333e+00 5.9900000e+00 0.0000000e+00 
5.7933333e+00 6.0100000e+00 0.0000000e+00 
5.7933333e+00 6.0300000e+00 0.0000000e+00 
5.8200000e+00 5.9700000e+00 0.0000000e+00 
5.8200000e+00 5.9900000e+00 0.0000000e+00 
5.8200000e+00 6.0100000e+00 0.0000000e+00 
5.8200000e+00 6.0300000e+00 0.0000000e+00 
5.8466667e+00 5.9700000e+00 0.0000000e+00 
5.8466667e+00 5.9900000e+00 0.0000000e+00 
5.8466667e+00 6.0100000e+00 0.0000000e+00 
5.8466667e+00 6.0300000e+00 0.0000000e+00 
5.8733333e+00 5.9700000e+00 0.0000000e+00 
5.8733333e+00 5.9900000e+00 0.0000000e+00 
5.8733333e+00 6.0100000e+00 0.0000000e+00 
5.8733333e+00 6.0300000e+00 0.0000000e+00 
5.9000000e+00 5.9700000e+00 0.0000000e+00 
5.9000000e+00 5.9900000e+00 0.0000000e+00 
5.9000000e+00 6.0100000e+00 0.0000000e+00 
5.9000000e+00 6.0300000e+00 0.0000000e+00 
5.9266667e+00 5.9700000e+00 0.0000000e+00 
5.9266667e+00 5.9900000e+00 0.0000000e+00 
5.9266667e+00 6.0100000e+00 0.0000000e+00 
5.9266667e+00 6.0300000e+00 0.0000000e+00 
5.9533333e+00 5.9700000e+00 0.0000000e+00 
5.9533333e+00 5.9900000e+00 0.0000000e+00 
5.9533333e+00 6.0100000e+00 0.0000000e+00 
5.9533333e+00 6.0300000e+00 0.0000000e+00 
5.9800000e+00 5.9700000e+00 0.0000000e+00 
5.9800000e+00 5.9900000e+00 0.0000000e+00 
5.9800000e+00 6.0100000e+00 0.0000000e+00 
5.9800000e+00 6.0300000e+00 0.0000000e+00 
6.0066667e+00 5.9700000e+00 0.0000000e+00 
6.0066667e+00 5.9900000e+00 0.0000000e+00 
6.0066667e+00 6.0100000e+00 0.0000000e+00 
6.0066667e+00 6.0300000e+00 0.0000000e+00 
6.0333333e+00 5.9700000e+00 0.0000000e+00 
6.0333333e+00 5.9900000e+00 0.0000000e+00 
6.0333333e+00 6.0100000e+00 0.0000000e+00 
6.0333333e+00 6.0300000e+00 0.0000000e+00 
6.0600000e+00 5.9700000e+00 0.0000000e+00 
6.0600000e+00 5.9900000e+00 0.0000000e+00 
6.0600000e+00 6.0100000e+00 0.0000000e+00 
6.0600000e+00 6.0300000e+00 0.0000000e+00 
6.0866667e+00 5.9700000e+00 0.0000000e+00 
6.0866667e+00 5.9900000e+00 0.0000000e+00 
6.0866667e+00 6.0100000e+00 0.0000000e+00 
6.0866667e+00 6.0300000e+00 0.0000000e+00 
6.1133333e+00 5.9700000e+00 0.0000000e+00 
6.1133333e+00 5.9900000e+00 0.0000000e+00 
6.1133333e+00 6.0100000e+00 0.0000000e+00 
6.1133333e+00 6.0300000e+00 0.0000000e+00 
6.1400000e+00 5.9700000e+00 0.0000000e+00 
6.1400000e+00 5.9900000e+00 0.0000000e+00 
6.1400000e+00 6.0100000e+00 0.0000000e+00 
6.1400000e+00 6.0300000e+00 0.0000000e+00 
6.1666667e+00 5.9700000e+00 0.0000000e+00 
6.1666667e+00 5.9900000e+00 0.0000000e+00 
6.1666667e+00 6.0100000e+00 0.0000000e+00 
6.1666667e+00 6.0300000e+00 0.0000000e+00 
6.1933333e+00 5.9700000e+00 0.0000000e+00 
6.1933333e+00 5.9900000e+00 0.0000000e+00 
6.1933333e+00 6.0100000e+00 0.0000000e+00 
6.1933333e+00 6.0300000e+00 0.0000000e+00 
6.2200000e+00 5.9700000e+00 0.0000000e+00 
6.2200000e+00 5.9900000e+00 0.0000000e+00 
6.2200000e+00 6.0100000e+00 0.0000000e+00 
6.2200000e+00 6.0300000e+00 0.0000000e+00 
6.2466667e+00 5.9700000e+00 0.0000000e+00 
6.2466667e+00 5.9900000e+00 0.0000000e+00 
6.2466667e+00 6.0100000e+00 0.0000000e+00 
6.2466667e+00 6.0300000e+00 0.0000000e+00 
6.2733333e+00 5.9700000e+00 0.0000000e+00 
6.2733333e+00 5.9900000e+00 0.0000000e+00 
6.2733333e+00 6.0100000e+00 0.0000000e+00 
6.2733333e+00 6.0300000e+00 0.0000000e+00 
6.3000000e+00 5.9700000e+00 0.0000000e+00 
6.3000000e+00 5.9900000e+00 0.0000000e+00 
6.3000000e+00 6.0100000e+00 0.0000000e+00 
6.3000000e+00 6.0300000e+00 0.0000000e+00 
6.3266667e+00 5.9700000e+00 0.0000000e+00 
6.3266667e+00 5.9900000e+00 0.0000000e+00 
6.3266667e+00 6.0100000e+00 0.0000000e+00 
6.3266667e+00 6.0300000e+00 0.0000000e+00 
6.3533333e+00 5.9700000e+00 0.0000000e+00 
6.3533333e+00 5.9900000e+00 0.0000000e+00 
6.3533333e+00 6.0100000e+00 0.0000000e+00 
6.3533333e+00 6.0300000e+00 0.0000000e+00 
6.3800000e+00 5.9700000e+00 0.0000000e+00 
6.3800000e+00 5.9900000e+00 0.0000000e+00 
6.3800000e+00 6.0100000e+00 0.0000000e+00 
6.3800000e+00 6.0300000e+00 0.0000000e+00 
6.4066667e+00 5.9700000e+00 0.0000000e+00 
6.4066667e+00 5.9900000e+00 0.0000000e+00 
6.4066667e+00 6.0100000e+00 0.0000000e+00 
6.4066667e+00 6.0300000e+00 0.0000000e+00 
6.4333333e+00 5.9700000e+00 0.0000000e+00 
6.4333333e+00 5.9900000e+00 0.0000000e+00 
6.4333333e+00 6.0100000e+00 0.0000000e+00 
6.4333333e+00 6.0300000e+00 0.0000000e+00 
6.4600000e+00 5.9700000e+00 0.0000000e+00 
6.4600000e+00 5.9900000e+00 0.0000000e+00 
6.4600000e+00 6.0100000e+00 0.0000000e+00 
6.4600000e+00 6.0300000e+00 0.0000000e+00 
6.4866667e+00 5.9700000e+00 0.0000000e+00 
6.4866667e+00 5.9900000e+00 0.0000000e+00 
6.4866667e+00 6.0100000e+00 0.0000000e+00 
6.4866667e+00 6.0300000e+00 0.0000000e+00 
6.5133333e+00 5.9700000e+00 0.0000000e+00 
6.5133333e+00 5.9900000e+00 0.0000000e+00 
6.5133333e+00 6.0100000e+00 0.0000000e+00 
6.5133333e+00 6.0300000e+00 0.0000000e+00 
6.5400000e+00 5.9700000e+00 0.0000000e+00 
6.5400000e+00 5.9900000e+00 0.0000000e+00 
6.5400000e+00 6.0100000e+00 0.0000000e+00 
6.5400000e+00 6.0300000e+00 0.0000000e+00 
6.5666667e+00 5.9700000e+00 0.0000000e+00 
6.5666667e+00 5.9900000e+00 0.0000000e+00 
6.5666667e+00 6.0100000e+00 0.0000000e+00 
6.5666667e+00 6.0300000e+00 0.0000000e+00 
6.5933333e+00 5.9700000e+00 0.0000000e+00 
6.5933333e+00 5.9900000e+00 0.0000000e+00 
6.5933333e+00 6.0100000e+00 0.0000000e+00 
6.5933333e+00 6.0300000e+00 0.0000000e+00 
6.6200000e+00 5.9700000e+00 0.0000000e+00 
6.6200000e+00 5.9900000e+00 0.0000000e+00 
6.6200000e+00 6.0100000e+00 0.0000000e+00 
6.6200000e+00 6.0300000e+00 0.0000000e+00 
6.6466667e+00 5.9700000e+00 0.0000000e+00 
6.6466667e+00 5.9900000e+00 0.0000000e+00 
6.6466667e+00 6.0100000e+00 0.0000000e+00 
6.6466667e+00 6.0300000e+00 0.0000000e+00 
6.6733333e+00 5.9700000e+00 0.0000000e+00 
6.6733333e+00 5.9900000e+00 0.0000000e+00 
6.6733333e+00 6.0100000e+00 0.0000000e+00 
6.6733333e+00 6.0300000e+00 0.0000000e+00 
6.7000000e+00 5.9700000e+00 0.0000000e+00 
6.7000000e+00 5.9900000e+00 0.0000000e+00 
6.7000000e+00 6.0100000e+00 0.0000000e+00 
6.7000000e+00 6.0300000e+00 0.0000000e+00 
6.7266667e+00 5.9700000e+00 0.0000000e+00 
6.7266667e+00 5.9900000e+00 0.0000000e+00 
6.7266667e+00 6.0100000e+00 0.0000000e+00 
6.7266667e+00 6.0300000e+00 0.0000000e+00 
6.7533333e+00 5.9700000e+00 0.0000000e+00 
6.7533333e+00 5.9900000e+00 0.0000000e+00 
6.7533333e+00 6.0100000e+00 0.0000000e+00 
6.7533333e+00 6.0300000e+00 0.0000000e+00 
6.7800000e+00 5.9700000e+00 0.0000000e+00 
6.7800000e+00 5.9900000e+00 0.0000000e+00 
6.7800000e+00 6.0100000e+00 0.0000000e+00 
6.7800000e+00 6.0300000e+00 0.0000000e+00 
6.8066667e+00 5.9700000e+00 0.0000000e+00 
6.8066667e+00 5.9900000e+00 0.0000000e+00 
6.8066667e+00 6.0100000e+00 0.0000000e+00 
6.8066667e+00 6.0300000e+00 0.0000000e+00 
6.8333333e+00 5.9700000e+00 0.0000000e+00 
6.8333333e+00 5.9900000e+00 0.0000000e+00 
6.8333333e+00 6.0100000e+00 0.0000000e+00 
6.8333333e+00 6.0300000e+00 0.0000000e+00 
6.8600000e+00 5.9700000e+00 0.0000000e+00 
6.8600000e+00 5.9900000e+00 0.0000000e+00 
6.8600000e+00 6.0100000e+00 0.0000000e+00 
6.8600000e+00 6.0300000e+00 0.0000000e+00 
6.8866667e+00 5.9700000e+00 0.0000000e+00 
6.8866667e+00 5.9900000e+00 0.0000000e+00 
6.8866667e+00 6.0100000e+00 0.0000000e+00 
6.8866667e+00 6.0300000e+00 0.0000000e+00 
6.9133333e+00 5.9700000e+00 0.0000000e+00 
6.9133333e+00 5.9900000e+00 0.0000000e+00 
6.9133333e+00 6.0100000e+00 0.0000000e+00 
6.9133333e+00 6.0300000e+00 0.0000000e+00 
6.9400000e+00 5.9700000e+00 0.0000000e+00 
6.9400000e+00 5.9900000e+00 0.0000000e+00 
6.9400000e+00 6.0100000e+00 0.0000000e+00 
6.9400000e+00 6.0300000e+00 0.0000000e+00 
6.9666667e+00 5.9700000e+00 0.0000000e+00 
6.9666667e+00 5.9900000e+00 0.0000000e+00 
6.9666667e+00 6.0100000e+00 0.0000000e+00 
6.9666667e+00 6.0300000e+00 0.0000000e+00 
6.9933333e+00 5.9700000e+00 0.0000000e+00 
6.9933333e+00 5.9900000e+00 0.0000000e+00 
6.9933333e+00 6.0100000e+00 0.0000000e+00 
6.9933333e+00 6.0300000e+00 0.0000000e+00 
7.0200000e+00 5.9700000e+00 0.0000000e+00 
7.0200000e+00 5.9900000e+00 0.0000000e+00 
[...]
POINT_DATA 604
FIELD FieldData 2
DISPLACEMENT 3 604  float
0.0000000e+00 0.0000000e+00 0.0000000e+00 
0.0000000e+00 0.0000000e+00 0.0000000e+00 
2.9662410e-05 2.3856814e-05 0.0000000e+00 
8.2058414e-06 1.8093519e-05 0.0000000e+00 
0.0000000e+00 0.0000000e+00 0.0000000e+00 
-9.7640469e-06 1.8439122e-05 0.0000000e+00 
5.4174406e-05 6.5952882e-05 0.0000000e+00 
1.5819954e-05 6.3644728e-05 0.0000000e+00 
0.0000000e+00 0.0000000e+00 0.0000000e+00 
-3.2086490e-05 2.4507460e-05 0.0000000e+00 
-2.0220522e-05 6.4875749e-05 0.0000000e+00 
7.2677371e-05 1.3262356e-04 0.0000000e+00 
-5.8723312e-05 7.0395002e-05 0.0000000e+00 
2.0989543e-05 1.2966039e-04 0.0000000e+00 
-2.8124545e-05 1.3015388e-04 0.0000000e+00 
-7.9791888e-05 1.3308888e-04 0.0000000e+00 
8.5326749e-05 2.1048081e-04 0.0000000e+00 
2.4297099e-05 2.1004340e-04 0.0000000e+00 
-3.4173509e-05 2.1110358e-04 0.0000000e+00 
-9.5162304e-05 2.1465187e-04 0.0000000e+00 
9.2095200e-05 3.0180180e-04 0.0000000e+00 
2.5694232e-05 3.0082365e-04 0.0000000e+00 
-3.8306755e-05 3.0117679e-04 0.0000000e+00 
-1.0485920e-04 3.0206687e-04 0.0000000e+00 
9.3153125e-05 3.9412668e-04 0.0000000e+00 
2.5217158e-05 3.9555679e-04 0.0000000e+00 
-4.0525760e-05 3.9686407e-04 0.0000000e+00 
-1.0905179e-04 3.9830213e-04 0.0000000e+00 
8.8842071e-05 4.8802337e-04 0.0000000e+00 
2.2287516e-05 4.9044719e-04 0.0000000e+00 
-4.1509313e-05 4.9176050e-04 0.0000000e+00 
-1.0736917e-04 4.9225138e-04 0.0000000e+00 
7.8709425e-05 5.7859671e-04 0.0000000e+00 
1.8117115e-05 5.8054666e-04 0.0000000e+00 
-4.0047160e-05 5.8093485e-04 0.0000000e+00 
-1.0048178e-04 5.7894697e-04 0.0000000e+00 
6.3442332e-05 6.5536717e-04 0.0000000e+00 
1.2092247e-05 6.5984991e-04 0.0000000e+00 
-3.6829379e-05 6.6097192e-04 0.0000000e+00 
-8.8104194e-05 6.5975340e-04 0.0000000e+00 
4.2738755e-05 7.2113166e-04 0.0000000e+00 
4.2975268e-06 7.2498723e-04 0.0000000e+00 
-3.1849667e-05 7.2553638e-04 0.0000000e+00 
-7.0273095e-05 7.2171480e-04 0.0000000e+00 
1.6942474e-05 7.6362035e-04 0.0000000e+00 
-5.2749011e-06 7.7004763e-04 0.0000000e+00 
-2.5089496e-05 7.7124165e-04 0.0000000e+00 
-4.7195736e-05 7.6826723e-04 0.0000000e+00 
-1.4275711e-05 7.8580210e-04 0.0000000e+00 
-1.6549690e-05 7.9152591e-04 0.0000000e+00 
-1.6591414e-05 7.9211863e-04 0.0000000e+00 
-1.8850665e-05 7.8651104e-04 0.0000000e+00 
-5.0474806e-05 7.7537384e-04 0.0000000e+00 
-2.9607539e-05 7.8364176e-04 0.0000000e+00 
-6.3847639e-06 7.8485130e-04 0.0000000e+00 
1.4583318e-05 7.8009817e-04 0.0000000e+00 
-9.2069955e-05 7.3555648e-04 0.0000000e+00 
-4.4388291e-05 7.4301713e-04 0.0000000e+00 
5.4505604e-06 7.4355915e-04 0.0000000e+00 
5.3113490e-05 7.3611486e-04 0.0000000e+00 
-1.3860710e-04 6.5402504e-04 0.0000000e+00 
-6.1018013e-05 6.6395409e-04 0.0000000e+00 
1.8865811e-05 6.6503787e-04 0.0000000e+00 
9.6514658e-05 6.5840514e-04 0.0000000e+00 
-1.9058211e-04 5.3423348e-04 0.0000000e+00 
-7.9458032e-05 5.4319774e-04 0.0000000e+00 
3.3735274e-05 5.4349248e-04 0.0000000e+00 
1.4477712e-04 5.3405584e-04 0.0000000e+00 
-2.4754442e-04 3.6382950e-04 0.0000000e+00 
-9.9889229e-05 3.7512611e-04 0.0000000e+00 
4.9983729e-05 3.7582837e-04 0.0000000e+00 
1.9762140e-04 3.6709873e-04 0.0000000e+00 
-3.1006620e-04 1.4649245e-04 0.0000000e+00 
-1.2230384e-04 1.5660494e-04 0.0000000e+00 
6.7427720e-05 1.5633030e-04 0.0000000e+00 
2.5501653e-04 1.4462038e-04 0.0000000e+00 
-3.7771326e-04 -1.3013124e-04 0.0000000e+00 
-1.4694216e-04 -1.1791299e-04 0.0000000e+00 
8.5963489e-05 -1.1799216e-04 0.0000000e+00 
3.1662298e-04 -1.2919140e-04 0.0000000e+00 
-4.5120690e-04 -4.6217955e-04 0.0000000e+00 
-1.7379288e-04 -4.5139978e-04 0.0000000e+00 
1.0537933e-04 -4.5282610e-04 0.0000000e+00 
3.8230765e-04 -4.6721387e-04 0.0000000e+00 
-5.3022008e-04 -8.6208192e-04 0.0000000e+00 
-2.0314698e-04 -8.4964026e-04 0.0000000e+00 
1.2554375e-04 -8.5075725e-04 0.0000000e+00 
4.5160366e-04 -8.6503678e-04 0.0000000e+00 
-6.1490621e-04 -1.3277448e-03 0.0000000e+00 
-2.3583396e-04 -1.3153642e-03 0.0000000e+00 
1.4544538e-04 -1.3174212e-03 0.0000000e+00 
5.2478718e-04 -1.3334484e-03 0.0000000e+00 
-7.0604706e-04 -1.8632798e-03 0.0000000e+00 
-2.7079262e-04 -1.8528591e-03 0.0000000e+00 
1.6612973e-04 -1.8570915e-03 0.0000000e+00 
6.0091361e-04 -1.8767249e-03 0.0000000e+00 
-8.0303673e-04 -2.4790471e-03 0.0000000e+00 
-3.0907816e-04 -2.4674546e-03 0.0000000e+00 
1.8662385e-04 -2.4722818e-03 0.0000000e+00 
6.7990522e-04 -2.4922425e-03 0.0000000e+00 
-9.0675139e-04 -3.1705575e-03 0.0000000e+00 
-3.5082635e-04 -3.1615719e-03 0.0000000e+00 
2.0650528e-04 -3.1686869e-03 0.0000000e+00 
7.6153429e-04 -3.1928934e-03 0.0000000e+00 
-1.0170170e-03 -3.9501728e-03 0.0000000e+00 
-3.9651483e-04 -3.9405152e-03 0.0000000e+00 
2.2555942e-04 -3.9488645e-03 0.0000000e+00 
8.4510849e-04 -3.9738696e-03 0.0000000e+00 
-1.1347249e-03 -4.8133100e-03 0.0000000e+00 
-4.4633971e-04 -4.8068978e-03 0.0000000e+00 
2.4324354e-04 -4.8181357e-03 0.0000000e+00 
9.3041658e-04 -4.8479909e-03 0.0000000e+00 
-1.2597078e-03 -5.7723186e-03 0.0000000e+00 
-5.0090483e-04 -5.7658930e-03 0.0000000e+00 
2.5925409e-04 -5.7790146e-03 0.0000000e+00 
1.0167429e-03 -5.8102882e-03 0.0000000e+00 
-1.3929259e-03 -6.8224695e-03 0.0000000e+00 
-5.6046657e-04 -6.8200204e-03 0.0000000e+00 
2.7294485e-04 -6.8367389e-03 0.0000000e+00 
1.1038071e-03 -6.8735609e-03 0.0000000e+00 
-1.5342974e-03 -7.9760366e-03 0.0000000e+00 
-6.2572120e-04 -7.9743593e-03 0.0000000e+00 
2.8395885e-04 -7.9937290e-03 0.0000000e+00 
1.1907953e-03 -8.0327102e-03 0.0000000e+00 
-1.6848445e-03 -9.2281879e-03 0.0000000e+00 
-6.9698571e-04 -9.2313341e-03 0.0000000e+00 
2.9154306e-04 -9.2551285e-03 0.0000000e+00 
1.2773560e-03 -9.3004715e-03 0.0000000e+00 
-1.8445768e-03 -1.0591085e-02 0.0000000e+00 
-7.7505368e-04 -1.0595918e-02 0.0000000e+00 
2.9528319e-04 -1.0623255e-02 0.0000000e+00 
1.3625747e-03 -1.0671621e-02 0.0000000e+00 
-2.0145726e-03 -1.2059812e-02 0.0000000e+00 
-8.6030634e-04 -1.2070435e-02 0.0000000e+00 
2.9431272e-04 -1.2103146e-02 0.0000000e+00 
1.4460259e-03 -1.2158805e-02 0.0000000e+00 
-2.1949328e-03 -1.3646356e-02 0.0000000e+00 
-9.5363459e-04 -1.3659732e-02 0.0000000e+00 
2.8816176e-04 -1.3697009e-02 0.0000000e+00 
1.5266940e-03 -1.3756702e-02 0.0000000e+00 
-2.3868668e-03 -1.5345752e-02 0.0000000e+00 
-1.0554399e-03 -1.5365978e-02 0.0000000e+00 
2.7588337e-04 -1.5409813e-02 0.0000000e+00 
1.6040036e-03 -1.5477802e-02 0.0000000e+00 
-2.5906595e-03 -1.7169872e-02 0.0000000e+00 
-1.1667086e-03 -1.7194192e-02 0.0000000e+00 
2.5697184e-04 -1.7243342e-02 0.0000000e+00 
1.6767819e-03 -1.7316608e-02 0.0000000e+00 
-2.8069857e-03 -1.9115639e-02 0.0000000e+00 
-1.2887322e-03 -1.9146225e-02 0.0000000e+00 
2.2969394e-04 -1.9202376e-02 0.0000000e+00 
1.7448535e-03 -1.9283375e-02 0.0000000e+00 
-3.0371617e-03 -2.1186528e-02 0.0000000e+00 
-1.4210442e-03 -2.1225763e-02 0.0000000e+00 
1.9449076e-04 -2.1290613e-02 0.0000000e+00 
1.8066226e-03 -2.1381568e-02 0.0000000e+00 
-3.2812115e-03 -2.3391902e-02 0.0000000e+00 
-1.5653632e-03 -2.3437160e-02 0.0000000e+00 
1.4991836e-04 -2.3509590e-02 0.0000000e+00 
1.8612407e-03 -2.3607638e-02 0.0000000e+00 
-3.5404011e-03 -2.5726560e-02 0.0000000e+00 
-1.7222828e-03 -2.5781973e-02 0.0000000e+00 
9.4720101e-05 -2.5864085e-02 0.0000000e+00 
1.9079382e-03 -2.5973611e-02 0.0000000e+00 
-3.8152945e-03 -2.8201573e-02 0.0000000e+00 
-1.8930005e-03 -2.8264475e-02 0.0000000e+00 
2.8266844e-05 -2.8355733e-02 0.0000000e+00 
1.9452655e-03 -2.8473751e-02 0.0000000e+00 
-4.1071496e-03 -3.0811784e-02 0.0000000e+00 
-2.0781816e-03 -3.0886374e-02 0.0000000e+00 
-5.0820611e-05 -3.0988817e-02 0.0000000e+00 
1.9724447e-03 -3.1119792e-02 0.0000000e+00 
-4.4165693e-03 -3.3567969e-02 0.0000000e+00 
-2.2791486e-03 -3.3651687e-02 0.0000000e+00 
-1.4326462e-04 -3.3764858e-02 0.0000000e+00 
1.9880067e-03 -3.3905873e-02 0.0000000e+00 
-4.7448393e-03 -3.6464936e-02 0.0000000e+00 
-2.4966273e-03 -3.6561969e-02 0.0000000e+00 
-2.5055464e-04 -3.6687935e-02 0.0000000e+00 
1.9910852e-03 -3.6843474e-02 0.0000000e+00 
-5.0926691e-03 -3.9513089e-02 0.0000000e+00 
-2.7320230e-03 -3.9621006e-02 0.0000000e+00 
-3.7345950e-04 -3.9759393e-02 0.0000000e+00 
1.9801262e-03 -3.9926633e-02 0.0000000e+00 
-5.4613646e-03 -4.2707227e-02 0.0000000e+00 
-2.9861142e-03 -4.2830191e-02 0.0000000e+00 
-5.1356899e-04 -4.2983085e-02 0.0000000e+00 
1.9541854e-03 -4.3166515e-02 0.0000000e+00 
-5.8517348e-03 -4.6057355e-02 0.0000000e+00 
-3.2603838e-03 -4.6193064e-02 0.0000000e+00 
-6.7169378e-04 -4.6360172e-02 0.0000000e+00 
1.9116349e-03 -4.6557064e-02 0.0000000e+00 
-6.2650970e-03 -4.9558261e-02 0.0000000e+00 
-3.5556581e-03 -4.9710841e-02 0.0000000e+00 
-8.4951727e-04 -4.9894263e-02 0.0000000e+00 
1.8514604e-03 -5.0109096e-02 0.0000000e+00 
-6.7023461e-03 -5.3219508e-02 0.0000000e+00 
-3.8734868e-03 -5.3386800e-02 0.0000000e+00 
-1.0478817e-03 -5.3586320e-02 0.0000000e+00 
1.7719709e-03 -5.3816480e-02 0.0000000e+00 
-7.1648716e-03 -5.7035881e-02 0.0000000e+00 
-4.2146950e-03 -5.7221932e-02 0.0000000e+00 
-1.2685275e-03 -5.7439739e-02 0.0000000e+00 
1.6720332e-03 -5.7689619e-02 0.0000000e+00 
-7.6537324e-03 -6.1016567e-02 0.0000000e+00 
-4.5809092e-03 -6.1219497e-02 0.0000000e+00 
-1.5122816e-03 -6.1455027e-02 0.0000000e+00 
1.5498652e-03 -6.1722245e-02 0.0000000e+00 
-8.1699426e-03 -6.5157969e-02 0.0000000e+00 
-4.9736958e-03 -6.5380069e-02 0.0000000e+00 
-1.7814670e-03 -6.5635196e-02 0.0000000e+00 
1.4047445e-03 -6.5922555e-02 0.0000000e+00 
-8.7151395e-03 -6.9462145e-02 0.0000000e+00 
-5.3933140e-03 -6.9705950e-02 0.0000000e+00 
-2.0763666e-03 -6.9982598e-02 0.0000000e+00 
1.2345364e-03 -7.0292374e-02 0.0000000e+00 
-9.2899867e-03 -7.3935733e-02 0.0000000e+00 
-5.8418466e-03 -7.4199517e-02 0.0000000e+00 
-2.3986427e-03 -7.4497181e-02 0.0000000e+00 
1.0377864e-03 -7.4827217e-02 0.0000000e+00 
-9.8957794e-03 -7.8573370e-02 0.0000000e+00 
-6.3201933e-03 -7.8860945e-02 0.0000000e+00 
-2.7501956e-03 -7.9181759e-02 0.0000000e+00 
8.1324719e-04 -7.9536323e-02 0.0000000e+00 
-1.0533737e-02 -8.3382843e-02 0.0000000e+00 
-6.8300138e-03 -8.3692471e-02 0.0000000e+00 
-3.1318747e-03 -8.4036437e-02 0.0000000e+00 
5.5907381e-04 -8.4413250e-02 0.0000000e+00 
-1.1205104e-02 -8.8358857e-02 0.0000000e+00 
-7.3722317e-03 -8.8694330e-02 0.0000000e+00 
-3.5456016e-03 -8.9063466e-02 0.0000000e+00 
2.7405711e-04 -8.9466779e-02 0.0000000e+00 
-1.1911084e-02 -9.3508755e-02 0.0000000e+00 
-7.9485467e-03 -9.3868418e-02 0.0000000e+00 
-3.9922554e-03 -9.4262766e-02 0.0000000e+00 
-4.3579057e-05 -9.4690346e-02 0.0000000e+00 
-1.2652879e-02 -9.8827210e-02 0.0000000e+00 
-8.5598793e-03 -9.9214761e-02 0.0000000e+00 
-4.4737809e-03 -9.9636295e-02 0.0000000e+00 
-3.9507022e-04 -1.0009233e-01 0.0000000e+00 
-1.3431724e-02 -1.0432108e-01 0.0000000e+00 
-9.2079259e-03 -1.0473495e-01 0.0000000e+00 
-4.9910344e-03 -1.0518375e-01 0.0000000e+00 
-7.8217561e-04 -1.0566606e-01 0.0000000e+00 
-1.4248770e-02 -1.0998502e-01 0.0000000e+00 
-9.8935895e-03 -1.1042880e-01 0.0000000e+00 
-5.5459652e-03 -1.1090678e-01 0.0000000e+00 
-1.2061369e-03 -1.1141949e-01 0.0000000e+00 
-1.5105265e-02 -1.1582540e-01 0.0000000e+00 
-1.0618550e-02 -1.1629761e-01 0.0000000e+00 
-6.1393952e-03 -1.1680486e-01 0.0000000e+00 
-1.6686795e-03 -1.1734584e-01 0.0000000e+00 
-1.6002297e-02 -1.2183685e-01 0.0000000e+00 
-1.1383682e-02 -1.2234095e-01 0.0000000e+00 
-6.7732643e-03 -1.2287935e-01 0.0000000e+00 
-2.1710346e-03 -1.2345261e-01 0.0000000e+00 
-1.6941107e-02 -1.2802523e-01 0.0000000e+00 
-1.2190631e-02 -1.2855982e-01 0.0000000e+00 
-7.4483440e-03 -1.2912947e-01 0.0000000e+00 
-2.7148805e-03 -1.2973294e-01 0.0000000e+00 
-1.7922760e-02 -1.3438516e-01 0.0000000e+00 
-1.3040196e-02 -1.3495356e-01 0.0000000e+00 
-8.1665330e-03 -1.3555632e-01 0.0000000e+00 
-3.3014623e-03 -1.3619387e-01 0.0000000e+00 
-1.8948549e-02 -1.4092206e-01 0.0000000e+00 
-1.3934010e-02 -1.4152304e-01 0.0000000e+00 
-8.9284879e-03 -1.4215871e-01 0.0000000e+00 
-3.9324241e-03 -1.4282838e-01 0.0000000e+00 
-2.0019300e-02 -1.4763176e-01 0.0000000e+00 
-1.4873363e-02 -1.4826718e-01 0.0000000e+00 
-9.7364148e-03 -1.4893729e-01 0.0000000e+00 
-4.6085441e-03 -1.4964164e-01 0.0000000e+00 
-2.1136388e-02 -1.5451435e-01 0.0000000e+00 
-1.5858704e-02 -1.5518633e-01 0.0000000e+00 
-1.0590774e-02 -1.5589251e-01 0.0000000e+00 
-5.3317968e-03 -1.5663338e-01 0.0000000e+00 
-2.2300480e-02 -1.6157313e-01 0.0000000e+00 
-1.6891747e-02 -1.6228045e-01 0.0000000e+00 
-1.1492782e-02 -1.6302239e-01 0.0000000e+00 
-6.1034528e-03 -1.6379796e-01 0.0000000e+00 
-2.3512351e-02 -1.6880248e-01 0.0000000e+00 
-1.7973105e-02 -1.6954802e-01 0.0000000e+00 
-1.2444190e-02 -1.7032731e-01 0.0000000e+00 
-6.9246148e-03 -1.7114111e-01 0.0000000e+00 
-2.4773116e-02 -1.7620639e-01 0.0000000e+00 
-1.9104141e-02 -1.7698887e-01 0.0000000e+00 
-1.3445447e-02 -1.7780556e-01 0.0000000e+00 
-7.7966666e-03 -1.7865558e-01 0.0000000e+00 
-2.6083447e-02 -1.8377930e-01 0.0000000e+00 
-2.0285405e-02 -1.8460148e-01 0.0000000e+00 
-1.4498187e-02 -1.8545700e-01 0.0000000e+00 
-8.7205747e-03 -1.8634666e-01 0.0000000e+00 
-2.7444335e-02 -1.9152476e-01 0.0000000e+00 
-2.1518180e-02 -1.9238538e-01 0.0000000e+00 
-1.5602786e-02 -1.9327973e-01 0.0000000e+00 
-9.6975513e-03 -1.9420700e-01 0.0000000e+00 
-2.8856336e-02 -1.9943719e-01 0.0000000e+00 
-2.2802922e-02 -2.0033886e-01 0.0000000e+00 
-1.6760782e-02 -2.0127333e-01 0.0000000e+00 
-1.0728478e-02 -2.0224148e-01 0.0000000e+00 
-3.0320352e-02 -2.0751970e-01 0.0000000e+00 
-2.4140799e-02 -2.0846114e-01 0.0000000e+00 
-1.7972437e-02 -2.0943570e-01 0.0000000e+00 
-1.1814441e-02 -2.1044271e-01 0.0000000e+00 
-3.1836822e-02 -2.1576670e-01 0.0000000e+00 
-2.5532162e-02 -2.1675034e-01 0.0000000e+00 
-1.9239177e-02 -2.1776617e-01 0.0000000e+00 
-1.2956216e-02 -2.1881513e-01 0.0000000e+00 
-3.3406540e-02 -2.2418087e-01 0.0000000e+00 
-2.6978055e-02 -2.2520543e-01 0.0000000e+00 
-2.0561140e-02 -2.2626243e-01 0.0000000e+00 
-1.4154753e-02 -2.2735130e-01 0.0000000e+00 
-3.5029823e-02 -2.3275661e-01 0.0000000e+00 
-2.8478716e-02 -2.3382433e-01 0.0000000e+00 
-2.1939630e-02 -2.3492355e-01 0.0000000e+00 
-1.5410709e-02 -2.3605528e-01 0.0000000e+00 
-3.6707342e-02 -2.4149616e-01 0.0000000e+00 
-3.0035056e-02 -2.4260578e-01 0.0000000e+00 
-2.3374654e-02 -2.4374706e-01 0.0000000e+00 
-1.6724890e-02 -2.4491958e-01 0.0000000e+00 
-3.8439326e-02 -2.5039393e-01 0.0000000e+00 
-3.1647166e-02 -2.5154750e-01 0.0000000e+00 
-2.4867373e-02 -2.5273180e-01 0.0000000e+00 
-1.8097852e-02 -2.5394784e-01 0.0000000e+00 
-4.0226375e-02 -2.5945181e-01 0.0000000e+00 
-3.3315850e-02 -2.6064810e-01 0.0000000e+00 
-2.6417606e-02 -2.6187501e-01 0.0000000e+00 
-1.9530274e-02 -2.6313253e-01 0.0000000e+00 
-4.2068546e-02 -2.6866508e-01 0.0000000e+00 
-3.5041463e-02 -2.6990502e-01 0.0000000e+00 
-2.8026586e-02 -2.7117518e-01 0.0000000e+00 
-2.1022214e-02 -2.7247586e-01 0.0000000e+00 
-4.3966282e-02 -2.7803203e-01 0.0000000e+00 
-3.6823882e-02 -2.7931673e-01 0.0000000e+00 
-2.9694175e-02 -2.8063089e-01 0.0000000e+00 
-2.2574645e-02 -2.8197564e-01 0.0000000e+00 
-4.5919431e-02 -2.8755295e-01 0.0000000e+00 
-3.8663696e-02 -2.8888111e-01 0.0000000e+00 
-3.1420468e-02 -2.9023863e-01 0.0000000e+00 
-2.4187864e-02 -2.9162546e-01 0.0000000e+00 
-4.7927833e-02 -2.9722216e-01 0.0000000e+00 
-4.0560616e-02 -2.9859523e-01 0.0000000e+00 
-3.3206226e-02 -2.9999664e-01 0.0000000e+00 
-2.5862024e-02 -3.0142775e-01 0.0000000e+00 
-4.9991601e-02 -3.0704030e-01 0.0000000e+00 
-4.2514956e-02 -3.0845690e-01 0.0000000e+00 
-3.5050890e-02 -3.0990177e-01 0.0000000e+00 
-2.7597356e-02 -3.1137500e-01 0.0000000e+00 
-5.2110466e-02 -3.1700180e-01 0.0000000e+00 
-4.4526310e-02 -3.1846323e-01 0.0000000e+00 
-3.6955019e-02 -3.1995191e-01 0.0000000e+00 
-2.9393807e-02 -3.2146928e-01 0.0000000e+00 
-5.4284348e-02 -3.2710699e-01 0.0000000e+00 
-4.6594846e-02 -3.2861182e-01 0.0000000e+00 
-3.8917931e-02 -3.3014378e-01 0.0000000e+00 
-3.1251407e-02 -3.3170308e-01 0.0000000e+00 
-5.6512849e-02 -3.3735032e-01 0.0000000e+00 
-4.8720017e-02 -3.3889966e-01 0.0000000e+00 
-4.0940023e-02 -3.4047511e-01 0.0000000e+00 
-3.3169946e-02 -3.4207819e-01 0.0000000e+00 
-5.8795727e-02 -3.4773183e-01 0.0000000e+00 
-5.0901832e-02 -3.4932421e-01 0.0000000e+00 
-4.3020466e-02 -3.5094253e-01 0.0000000e+00 
-3.5149296e-02 -3.5258713e-01 0.0000000e+00 
-6.1132463e-02 -3.5824599e-01 0.0000000e+00 
-5.3139606e-02 -3.5988234e-01 0.0000000e+00 
-4.5159494e-02 -3.6154360e-01 0.0000000e+00 
-3.7189084e-02 -3.6323138e-01 0.0000000e+00 
-6.3522648e-02 -3.6889257e-01 0.0000000e+00 
-5.5433189e-02 -3.7057137e-01 0.0000000e+00 
-4.7356133e-02 -3.7227487e-01 0.0000000e+00 
-3.9289027e-02 -3.7400354e-01 0.0000000e+00 
-6.5965649e-02 -3.7966609e-01 0.0000000e+00 
-5.7781760e-02 -3.8138808e-01 0.0000000e+00 
-4.9610457e-02 -3.8313376e-01 0.0000000e+00 
-4.1448587e-02 -3.8490480e-01 0.0000000e+00 
-6.8460888e-02 -3.9056605e-01 0.0000000e+00 
-6.0185016e-02 -3.9232967e-01 0.0000000e+00 
-5.1921351e-02 -3.9411674e-01 0.0000000e+00 
-4.3667335e-02 -3.9592783e-01 0.0000000e+00 
-7.1007645e-02 -4.0158701e-01 0.0000000e+00 
-6.2641983e-02 -4.0339285e-01 0.0000000e+00 
-5.4288726e-02 -4.0522113e-01 0.0000000e+00 
-4.5944588e-02 -4.0707353e-01 0.0000000e+00 
-7.3605230e-02 -4.1272827e-01 0.0000000e+00 
-6.5152239e-02 -4.1457476e-01 0.0000000e+00 
-5.6711294e-02 -4.1644327e-01 0.0000000e+00 
-4.8279788e-02 -4.1833467e-01 0.0000000e+00 
-7.6252782e-02 -4.2398499e-01 0.0000000e+00 
-6.7714942e-02 -4.2587194e-01 0.0000000e+00 
-5.9188914e-02 -4.2778028e-01 0.0000000e+00 
-5.0671848e-02 -4.2971117e-01 0.0000000e+00 
-7.8949577e-02 -4.3535432e-01 0.0000000e+00 
-7.0329050e-02 -4.3728167e-01 0.0000000e+00 
-6.1720500e-02 -4.3922954e-01 0.0000000e+00 
-5.3120396e-02 -4.4119976e-01 0.0000000e+00 
-8.1694311e-02 -4.4683458e-01 0.0000000e+00 
-7.2993835e-02 -4.4880066e-01 0.0000000e+00 
-6.4304886e-02 -4.5078686e-01 0.0000000e+00 
-5.5624554e-02 -4.5279409e-01 0.0000000e+00 
-8.4485949e-02 -4.5842039e-01 0.0000000e+00 
-7.5707962e-02 -4.6042528e-01 0.0000000e+00 
-6.6941568e-02 -4.6244925e-01 0.0000000e+00 
-5.8183216e-02 -4.6449428e-01 0.0000000e+00 
-8.7323298e-02 -4.7011031e-01 0.0000000e+00 
-7.8470566e-02 -4.7215226e-01 0.0000000e+00 
-6.9628930e-02 -4.7421293e-01 0.0000000e+00 
-6.0795429e-02 -4.7629332e-01 0.0000000e+00 
-9.0205273e-02 -4.8189905e-01 0.0000000e+00 
-8.1280213e-02 -4.8397805e-01 0.0000000e+00 
-7.2366291e-02 -4.8607473e-01 0.0000000e+00 
-6.3459918e-02 -4.8819114e-01 0.0000000e+00 
-9.3130526e-02 -4.9378509e-01 0.0000000e+00 
-8.4135929e-02 -4.9589932e-01 0.0000000e+00 
-7.5151950e-02 -4.9803088e-01 0.0000000e+00 
-6.6175589e-02 -5.0018085e-01 0.0000000e+00 
-9.6097900e-02 -5.0576318e-01 0.0000000e+00 
-8.7036185e-02 -5.0791253e-01 0.0000000e+00 
-7.7985103e-02 -5.1007818e-01 0.0000000e+00 
-6.8941045e-02 -5.1226220e-01 0.0000000e+00 
-9.9105926e-02 -5.1783170e-01 0.0000000e+00 
-8.9979897e-02 -5.2001431e-01 0.0000000e+00 
-8.0863959e-02 -5.2221285e-01 0.0000000e+00 
-7.1755092e-02 -5.2442848e-01 0.0000000e+00 
-1.0215339e-01 -5.2998548e-01 0.0000000e+00 
-9.2965451e-02 -5.3220112e-01 0.0000000e+00 
-8.3787600e-02 -5.3443169e-01 0.0000000e+00 
-7.4616220e-02 -5.3667929e-01 0.0000000e+00 
-1.0523871e-01 -5.4222280e-01 0.0000000e+00 
-9.5991673e-02 -5.4446960e-01 0.0000000e+00 
-8.6754160e-02 -5.4673095e-01 0.0000000e+00 
-7.7523145e-02 -5.4900806e-01 0.0000000e+00 
-1.0836063e-01 -5.5453858e-01 0.0000000e+00 
-9.9056875e-02 -5.5681621e-01 0.0000000e+00 
-8.9762620e-02 -5.5910740e-01 0.0000000e+00 
-8.0474259e-02 -5.6141427e-01 0.0000000e+00 
-1.1151747e-01 -5.6693104e-01 0.0000000e+00 
-1.0215981e-01 -5.6923760e-01 0.0000000e+00 
-9.2811054e-02 -5.7155734e-01 0.0000000e+00 
-8.3468204e-02 -5.7389154e-01 0.0000000e+00 
-1.1470796e-01 -5.7939517e-01 0.0000000e+00 
-1.0529871e-01 -5.8173026e-01 0.0000000e+00 
-9.5898352e-02 -5.8407758e-01 0.0000000e+00 
-8.6503303e-02 -5.8643920e-01 0.0000000e+00 
-1.1793039e-01 -5.9192918e-01 0.0000000e+00 
-1.0847229e-01 -5.9429092e-01 0.0000000e+00 
-9.9022520e-02 -5.9666441e-01 0.0000000e+00 