# vtk DataFile Version 4.0
vtk output
ASCII
DATASET UNSTRUCTURED_GRID
POINTS 604 float
5.5000000e+00 5.9700000e+00 0.0000000e+00 
5.5000000e+00 5.9900000e+00 0.0000000e+00 
5.5266667e+00 5.9700000e+00 0.0000000e+00 
5.5266667e+00 5.9900000e+00 0.0000000e+00 
5.5000000e+00 6.0100000e+00 0.0000000e+00 
5.5266667e+00 6.0100000e+00 0.0000000e+00 
5.5533333e+00 5.9700000e+00 0.0000000e+00 
5.5533333e+00 5.9900000e+00 0.0000000e+00 
5.5000000e+00 6.0300000e+00 0.0000000e+00 
5.5266667e+00 6.0300000e+00 0.0000000e+00 
5.5533333e+00 6.0100000e+00 0.0000000e+00 
5.5800000e+00 5.9700000e+00 0.0000000e+00 
5.5533333e+00 6.0300000e+00 0.0000000e+00 
5.5800000e+00 5.9900000e+00 0.0000000e+00 
5.5800000e+00 6.0100000e+00 0.0000000e+00 
5.5800000e+00 6.0300000e+00 0.0000000e+00 
5.6066667e+00 5.9700000e+00 0.0000000e+00 
5.6066667e+00 5.9900000e+00 0.0000000e+00 
5.6066667e+00 6.0100000e+00 0.0000000e+00 
5.6066667e+00 6.0300000e+00 0.0000000e+00 
5.6333333e+00 5.9700000e+00 0.0000000e+00 
5.6333333e+00 5.9900000e+00 0.0000000e+00 
5.6333333e+00 6.0100000e+00 0.0000000e+00 
5.6333333e+00 6.0300000e+00 0.0000000e+00 
5.6600000e+00 5.9700000e+00 0.0000000e+00 
5.6600000e+00 5.9900000e+00 0.0000000e+00 
5.6600000e+00 6.0100000e+00 0.0000000e+00 
5.6600000e+00 6.0300000e+00 0.0000000e+00 
5.6866667e+00 5.9700000e+00 0.0000000e+00 
5.6866667e+00 5.9900000e+00 0.0000000e+00 
5.6866667e+00 6.0100000e+00 0.0000000e+00 
5.6866667e+00 6.0300000e+00 0.0000000e+00 
5.7133333e+00 5.9700000e+00 0.0000000e+00 
5.7133333e+00 5.9900000e+00 0.0000000e+00 
5.7133333e+00 6.0100000e+00 0.0000000e+00 
5.7133333e+00 6.0300000e+00 0.0000000e+00 
5.7400000e+00 5.9700000e+00 0.0000000e+00 
5.7400000e+00 5.9900000e+00 0.0000000e+00 
5.7400000e+00 6.0100000e+00 0.0000000e+00 
5.7400000e+00 6.0300000e+00 0.0000000e+00 
5.7666667e+00 5.9700000e+00 0.0000000e+00 
5.7666667e+00 5.9900000e+00 0.0000000e+00 
5.7666667e+00 6.0100000e+00 0.0000000e+00 
5.7666667e+00 6.0300000e+00 0.0000000e+00 
5.7933333e+00 5.9700000e+00 0.0000000e+00 
5.7933333e+00 5.9900000e+00 0.0000000e+00 
5.7933333e+00 6.0100000e+00 0.0000000e+00 
5.7933333e+00 6.0300000e+00 0.0000000e+00 
5.8200000e+00 5.9700000e+00 0.0000000e+00 
5.8200000e+00 5.9900000e+00 0.0000000e+00 
5.8200000e+00 6.0100000e+00 0.0000000e+00 
5.8200000e+00 6.0300000e+00 0.0000000e+00 
5.8466667e+00 5.9700000e+00 0.0000000e+00 
5.8466667e+00 5.9900000e+00 0.0000000e+00 
5.8466667e+00 6.0100000e+00 0.0000000e+00 
5.8466667e+00 6.0300000e+00 0.0000000e+00 
5.8733333e+00 5.9700000e+00 0.0000000e+00 
5.8733333e+00 5.9900000e+00 0.0000000e+00 
5.8733333e+00 6.0100000e+00 0.0000000e+00 
5.8733333e+00 6.0300000e+00 0.0000000e+00 
5.9000000e+00 5.9700000e+00 0.0000000e+00 
5.9000000e+00 5.9900000e+00 0.0000000e+00 
5.9000000e+00 6.0100000e+00 0.0000000e+00 
5.9000000e+00 6.0300000e+00 0.0000000e+00 
5.9266667e+00 5.9700000e+00 0.0000000e+00 
5.9266667e+00 5.9900000e+00 0.0000000e+00 
5.9266667e+00 6.0100000e+00 0.0000000e+00 
5.9266667e+00 6.0300000e+00 0.0000000e+00 
5.9533333e+00 5.9700000e+00 0.0000000e+00 
5.9533333e+00 5.9900000e+00 0.0000000e+00 
5.9533333e+00 6.0100000e+00 0.0000000e+00 
5.9533333e+00 6.0300000e+00 0.0000000e+00 
5.9800000e+00 5.9700000e+00 0.0000000e+00 
5.9800000e+00 5.9900000e+00 0.0000000e+00 
5.9800000e+00 6.0100000e+00 0.0000000e+00 
5.9800000e+00 6.0300000e+00 0.0000000e+00 
6.0066667e+00 5.9700000e+00 0.0000000e+00 
6.0066667e+00 5.9900000e+00 0.0000000e+00 
6.0066667e+00 6.0100000e+00 0.0000000e+00 
6.0066667e+00 6.0300000e+00 0.0000000e+00 
6.0333333e+00 5.9700000e+00 0.0000000e+00 
6.0333333e+00 5.9900000e+00 0.0000000e+00 
6.0333333e+00 6.0100000e+00 0.0000000e+00 
6.0333333e+00 6.0300000e+00 0.0000000e+00 
6.0600000e+00 5.9700000e+00 0.0000000e+00 
6.0600000e+00 5.9900000e+00 0.0000000e+00 
6.0600000e+00 6.0100000e+00 0.0000000e+00 
6.0600000e+00 6.0300000e+00 0.0000000e+00 
6.0866667e+00 5.9700000e+00 0.0000000e+00 
6.0866667e+00 5.9900000e+00 0.0000000e+00 
6.0866667e+00 6.0100000e+00 0.0000000e+00 
6.0866667e+00 6.0300000e+00 0.0000000e+00 
6.1133333e+00 5.9700000e+00 0.0000000e+00 
6.1133333e+00 5.9900000e+00 0.0000000e+00 
6.1133333e+00 6.0100000e+00 0.0000000e+00 
6.1133333e+00 6.0300000e+00 0.0000000e+00 
6.1400000e+00 5.9700000e+00 0.0000000e+00 
6.1400000e+00 5.9900000e+00 0.0000000e+00 
6.1400000e+00 6.0100000e+00 0.0000000e+00 
6.1400000e+00 6.0300000e+00 0.0000000e+00 
6.1666667e+00 5.9700000e+00 0.0000000e+00 
6.1666667e+00 5.9900000e+00 0.0000000e+00 
6.1666667e+00 6.0100000e+00 0.0000000e+00 
6.1666667e+00 6.0300000e+00 0.0000000e+00 
6.1933333e+00 5.9700000e+00 0.0000000e+00 
6.1933333e+00 5.9900000e+00 0.0000000e+00 
6.1933333e+00 6.0100000e+00 0.0000000e+00 
6.1933333e+00 6.0300000e+00 0.0000000e+00 
6.2200000e+00 5.9700000e+00 0.0000000e+00 
6.2200000e+00 5.9900000e+00 0.0000000e+00 
6.2200000e+00 6.0100000e+00 0.0000000e+00 
6.2200000e+00 6.0300000e+00 0.0000000e+00 
6.2466667e+00 5.9700000e+00 0.0000000e+00 
6.2466667e+00 5.9900000e+00 0.0000000e+00 
6.2466667e+00 6.0100000e+00 0.0000000e+00 
6.2466667e+00 6.0300000e+00 0.0000000e+00 
6.2733333e+00 5.9700000e+00 0.0000000e+00 
6.2733333e+00 5.9900000e+00 0.0000000e+00 
6.2733333e+00 6.0100000e+00 0.0000000e+00 
6.2733333e+00 6.0300000e+00 0.0000000e+00 
6.3000000e+00 5.9700000e+00 0.0000000e+00 
6.3000000e+00 5.9900000e+00 0.0000000e+00 
6.3000000e+00 6.0100000e+00 0.0000000e+00 
6.3000000e+00 6.0300000e+00 0.0000000e+00 
6.3266667e+00 5.9700000e+00 0.0000000e+00 
6.3266667e+00 5.9900000e+00 0.0000000e+00 
6.3266667e+00 6.0100000e+00 0.0000000e+00 
6.3266667e+00 6.0300000e+00 0.0000000e+00 
6.3533333e+00 5.9700000e+00 0.0000000e+00 
6.3533333e+00 5.9900000e+00 0.0000000e+00 
6.3533333e+00 6.0100000e+00 0.0000000e+00 
6.3533333e+00 6.0300000e+00 0.0000000e+00 
6.3800000e+00 5.9700000e+00 0.0000000e+00 
6.3800000e+00 5.9900000e+00 0.0000000e+00 
6.3800000e+00 6.0100000e+00 0.0000000e+00 
6.3800000e+00 6.0300000e+00 0.0000000e+00 
6.4066667e+00 5.9700000e+00 0.0000000e+00 
6.4066667e+00 5.9900000e+00 0.0000000e+00 
6.4066667e+00 6.0100000e+00 0.0000000e+00 
6.4066667e+00 6.0300000e+00 0.0000000e+00 
6.4333333e+00 5.9700000e+00 0.0000000e+00 
6.4333333e+00 5.9900000e+00 0.0000000e+00 
6.4333333e+00 6.0100000e+00 0.0000000e+00 
6.4333333e+00 6.0300000e+00 0.0000000e+00 
6.4600000e+00 5.9700000e+00 0.0000000e+00 
6.4600000e+00 5.9900000e+00 0.0000000e+00 
6.4600000e+00 6.0100000e+00 0.0000000e+00 
6.4600000e+00 6.0300000e+00 0.0000000e+00 
6.4866667e+00 5.9700000e+00 0.0000000e+00 
6.4866667e+00 5.9900000e+00 0.0000000e+00 
6.4866667e+00 6.0100000e+00 0.0000000e+00 
6.4866667e+00 6.0300000e+00 0.0000000e+00 
6.5133333e+00 5.9700000e+00 0.0000000e+00 
6.5133333e+00 5.9900000e+00 0.0000000e+00 
6.5133333e+00 6.0100000e+00 0.0000000e+00 
6.5133333e+00 6.0300000e+00 0.0000000e+00 
6.5400000e+00 5.9700000e+00 0.0000000e+00 
6.5400000e+00 5.9900000e+00 0.0000000e+00 
6.5400000e+00 6.0100000e+00 0.0000000e+00 
6.5400000e+00 6.0300000e+00 0.0000000e+00 
6.5666667e+00 5.9700000e+00 0.0000000e+00 
6.5666667e+00 5.9900000e+00 0.0000000e+00 
6.5666667e+00 6.0100000e+00 0.0000000e+00 
6.5666667e+00 6.0300000e+00 0.0000000e+00 
6.5933333e+00 5.9700000e+00 0.0000000e+00 
6.5933333e+00 5.9900000e+00 0.0000000e+00 
6.5933333e+00 6.0100000e+00 0.0000000e+00 
6.5933333e+00 6.0300000e+00 0.0000000e+00 
6.6200000e+00 5.9700000e+00 0.0000000e+00 
6.6200000e+00 5.9900000e+00 0.0000000e+00 
6.6200000e+00 6.0100000e+00 0.0000000e+00 
6.6200000e+00 6.0300000e+00 0.0000000e+00 
6.6466667e+00 5.9700000e+00 0.0000000e+00 
6.6466667e+00 5.9900000e+00 0.0000000e+00 
6.6466667e+00 6.0100000e+00 0.0000000e+00 
6.6466667e+00 6.0300000e+00 0.0000000e+00 
6.6733333e+00 5.9700000e+00 0.0000000e+00 
6.6733333e+00 5.9900000e+00 0.0000000e+00 
6.6733333e+00 6.0100000e+00 0.0000000e+00 
6.6733333e+00 6.0300000e+00 0.0000000e+00 
6.7000000e+00 5.9700000e+00 0.0000000e+00 
6.7000000e+00 5.9900000e+00 0.0000000e+00 
6.7000000e+00 6.0100000e+00 0.0000000e+00 
6.7000000e+00 6.0300000e+00 0.0000000e+00 
6.7266667e+00 5.9700000e+00 0.0000000e+00 
6.7266667e+00 5.9900000e+00 0.0000000e+00 
6.7266667e+00 6.0100000e+00 0.0000000e+00 
6.7266667e+00 6.0300000e+00 0.0000000e+00 
6.7533333e+00 5.9700000e+00 0.0000000e+00 
6.7533333e+00 5.9900000e+00 0.0000000e+00 
6.7533333e+00 6.0100000e+00 0.0000000e+00 
6.7533333e+00 6.0300000e+00 0.0000000e+00 
6.7800000e+00 5.9700000e+00 0.0000000e+00 
6.7800000e+00 5.9900000e+00 0.0000000e+00 
6.7800000e+00 6.0100000e+00 0.0000000e+00 
6.7800000e+00 6.0300000e+00 0.0000000e+00 
6.8066667e+00 5.9700000e+00 0.0000000e+00 
6.8066667e+00 5.9900000e+00 0.0000000e+00 
6.8066667e+00 6.0100000e+00 0.0000000e+00 
6.8066667e+00 6.0300000e+00 0.0000000e+00 
6.8333333e+00 5.9700000e+00 0.0000000e+00 
6.8333333e+00 5.9900000e+00 0.0000000e+00 
6.8333333e+00 6.0100000e+00 0.0000000e+00 
6.8333333e+00 6.0300000e+00 0.0000000e+00 
6.8600000e+00 5.9700000e+00 0.0000000e+00 
6.8600000e+00 5.9900000e+00 0.0000000e+00 
6.8600000e+00 6.0100000e+00 0.0000000e+00 
6.8600000e+00 6.0300000e+00 0.0000000e+00 
6.8866667e+00 5.9700000e+00 0.0000000e+00 
6.8866667e+00 5.9900000e+00 0.0000000e+00 
6.8866667e+00 6.0100000e+00 0.0000000e+00 
6.8866667e+00 6.0300000e+00 0.0000000e+00 
6.9133333e+00 5.9700000e+00 0.0000000e+00 
6.9133333e+00 5.9900000e+00 0.0000000e+00 
6.9133333e+00 6.0100000e+00 0.0000000e+00 
6.9133333e+00 6.0300000e+00 0.0000000e+00 
6.9400000e+00 5.9700000e+00 0.0000000e+00 
6.9400000e+00 5.9900000e+00 0.0000000e+00 
6.9400000e+00 6.0100000e+00 0.0000000e+00 
6.9400000e+00 6.0300000e+00 0.0000000e+00 
6.9666667e+00 5.9700000e+00 0.0000000e+00 
6.9666667e+00 5.9900000e+00 0.0000000e+00 
6.9666667e+00 6.0100000e+00 0.0000000e+00 
6.9666667e+00 6.0300000e+00 0.0000000e+00 
6.9933333e+00 5.9700000e+00 0.0000000e+00 
6.9933333e+00 5.9900000e+00 0.0000000e+00 
6.9933333e+00 6.0100000e+00 0.0000000e+00 
6.9933333e+00 6.0300000e+00 0.0000000e+00 
7.0200000e+00 5.9700000e+00 0.0000000e+00 
7.0200000e+00 5.9900000e+00 0.0000000e+00 
[...]
POINT_DATA 604
FIELD FieldData 2
DISPLACEMENT 3 604  float
0.0000000e+00 0.0000000e+00 0.0000000e+00 
0.0000000e+00 0.0000000e+00 0.0000000e+00 
8.4054664e-05 5.0682662e-05 0.0000000e+00 
2.6627622e-05 3.2867634e-05 0.0000000e+00 
0.0000000e+00 0.0000000e+00 0.0000000e+00 
-2.7009993e-05 3.2762317e-05 0.0000000e+00 
1.6952857e-04 1.6339645e-04 0.0000000e+00 
5.6159253e-05 1.4839224e-04 0.0000000e+00 
0.0000000e+00 0.0000000e+00 0.0000000e+00 
-8.4500763e-05 5.0402017e-05 0.0000000e+00 
-5.7341120e-05 1.4802306e-04 0.0000000e+00 
2.5363003e-04 3.5438376e-04 0.0000000e+00 
-1.7087384e-04 1.6233335e-04 0.0000000e+00 
8.3452744e-05 3.3885172e-04 0.0000000e+00 
-8.6286134e-05 3.3809034e-04 0.0000000e+00 
-2.5672238e-04 3.5214389e-04 0.0000000e+00 
3.3590648e-04 6.2037966e-04 0.0000000e+00 
1.0993854e-04 6.0451501e-04 0.0000000e+00 
-1.1570541e-04 6.0320114e-04 0.0000000e+00 
-3.4200814e-04 6.1646778e-04 0.0000000e+00 
4.1622374e-04 9.6055249e-04 0.0000000e+00 
1.3518752e-04 9.4419661e-04 0.0000000e+00 
-1.4555776e-04 9.4218878e-04 0.0000000e+00 
-4.2700311e-04 9.5456265e-04 0.0000000e+00 
4.9439177e-04 1.3739268e-03 0.0000000e+00 
1.5903744e-04 1.3569189e-03 0.0000000e+00 
-1.7606195e-04 1.3540721e-03 0.0000000e+00 
-5.1189352e-04 1.3654113e-03 0.0000000e+00 
5.7023338e-04 1.8594475e-03 0.0000000e+00 
1.8131163e-04 1.8416645e-03 0.0000000e+00 
-2.0739988e-04 1.8378486e-03 0.0000000e+00 
-5.9687091e-04 1.8480229e-03 0.0000000e+00 
6.4358878e-04 2.4161191e-03 0.0000000e+00 
2.0183210e-04 2.3974407e-03 0.0000000e+00 
-2.3974907e-04 2.3925318e-03 0.0000000e+00 
-6.8212092e-04 2.4014137e-03 0.0000000e+00 
7.1430051e-04 3.0429954e-03 0.0000000e+00 
2.2043907e-04 3.0232787e-03 0.0000000e+00 
-2.7327929e-04 3.0171497e-03 0.0000000e+00 
-7.6781507e-04 3.0246220e-03 0.0000000e+00 
7.8221246e-04 3.7390407e-03 0.0000000e+00 
2.3697697e-04 3.7181888e-03 0.0000000e+00 
-3.0814977e-04 3.7107269e-03 0.0000000e+00 
-8.5412156e-04 3.7166698e-03 0.0000000e+00 
8.4718462e-04 4.5033278e-03 0.0000000e+00 
2.5129521e-04 4.4812096e-03 0.0000000e+00 
-3.4451504e-04 4.4723016e-03 0.0000000e+00 
-9.4119472e-04 4.4766116e-03 0.0000000e+00 
9.0907491e-04 5.3348384e-03 0.0000000e+00 
2.6325357e-04 5.3113655e-03 0.0000000e+00 
-3.8252024e-04 5.3009082e-03 0.0000000e+00 
-1.0291882e-03 5.3034739e-03 0.0000000e+00 
9.6775768e-04 6.2326514e-03 0.0000000e+00 
2.7271577e-04 6.2077058e-03 0.0000000e+00 
-4.2230550e-04 6.1955974e-03 0.0000000e+00 
-1.1182427e-03 6.1963283e-03 0.0000000e+00 
1.0231049e-03 7.1957666e-03 0.0000000e+00 
2.7955561e-04 7.1692677e-03 0.0000000e+00 
-4.6400199e-04 7.1554142e-03 0.0000000e+00 
-1.2084975e-03 7.1542068e-03 0.0000000e+00 
1.0750045e-03 8.2232691e-03 0.0000000e+00 
2.8365047e-04 8.1951112e-03 0.0000000e+00 
-5.0773624e-04 8.1794221e-03 0.0000000e+00 
-1.3000802e-03 8.1761984e-03 0.0000000e+00 
1.1233421e-03 9.3141766e-03 0.0000000e+00 
2.8488743e-04 9.2842868e-03 0.0000000e+00 
-5.5362617e-04 9.2666769e-03 0.0000000e+00 
-1.3931162e-03 9.2613410e-03 0.0000000e+00 
1.1680182e-03 1.0467581e-02 0.0000000e+00 
2.8315700e-04 1.0435866e-02 0.0000000e+00 
-6.0178528e-04 1.0416255e-02 0.0000000e+00 
-1.4877210e-03 1.0408740e-02 0.0000000e+00 
1.2089318e-03 1.1682518e-02 0.0000000e+00 
2.7835880e-04 1.1648911e-02 0.0000000e+00 
-6.5231893e-04 1.1627222e-02 0.0000000e+00 
-1.5840066e-03 1.1617441e-02 0.0000000e+00 
1.2459952e-03 1.2958087e-02 0.0000000e+00 
2.7039591e-04 1.2922505e-02 0.0000000e+00 
-7.0532815e-04 1.2898669e-02 0.0000000e+00 
-1.6820771e-03 1.2886565e-02 0.0000000e+00 
1.2791202e-03 1.4293339e-02 0.0000000e+00 
2.5917994e-04 1.4255724e-02 0.0000000e+00 
-7.6090645e-04 1.4229672e-02 0.0000000e+00 
-1.7820315e-03 1.4215165e-02 0.0000000e+00 
1.3082302e-03 1.5687383e-02 0.0000000e+00 
2.4462539e-04 1.5647663e-02 0.0000000e+00 
-8.1914251e-04 1.5619335e-02 0.0000000e+00 
-1.8839636e-03 1.5602377e-02 0.0000000e+00 
1.3332503e-03 1.7139290e-02 0.0000000e+00 
2.2665719e-04 1.7097409e-02 0.0000000e+00 
-8.8012215e-04 1.7066743e-02 0.0000000e+00 
-1.9879600e-03 1.7047273e-02 0.0000000e+00 
1.3541189e-03 1.8648159e-02 0.0000000e+00 
2.0520122e-04 1.8604064e-02 0.0000000e+00 
-9.4391894e-04 1.8571006e-02 0.0000000e+00 
-2.0941097e-03 1.8548962e-02 0.0000000e+00 
1.3707743e-03 2.0213121e-02 0.0000000e+00 
1.8019142e-04 2.0166751e-02 0.0000000e+00 
-1.0106097e-03 2.0131253e-02 0.0000000e+00 
-2.2024917e-03 2.0106601e-02 0.0000000e+00 
1.3831577e-03 2.1833268e-02 0.0000000e+00 
1.5156535e-04 2.1784585e-02 0.0000000e+00 
-1.0802604e-03 2.1746597e-02 0.0000000e+00 
-2.3131749e-03 2.1719276e-02 0.0000000e+00 
1.3912168e-03 2.3507747e-02 0.0000000e+00 
1.1926506e-04 2.3456697e-02 0.0000000e+00 
-1.1529338e-03 2.3416178e-02 0.0000000e+00 
-2.4262302e-03 2.3386162e-02 0.0000000e+00 
1.3949036e-03 2.5235664e-02 0.0000000e+00 
8.3238536e-05 2.5182215e-02 0.0000000e+00 
-1.2286869e-03 2.5139124e-02 0.0000000e+00 
-2.5417154e-03 2.5106359e-02 0.0000000e+00 
1.3941750e-03 2.7016177e-02 0.0000000e+00 
4.3437438e-05 2.6960283e-02 0.0000000e+00 
-1.3075725e-03 2.6914586e-02 0.0000000e+00 
-2.6596925e-03 2.6879052e-02 0.0000000e+00 
1.3889929e-03 2.8848404e-02 0.0000000e+00 
-1.8087634e-07 2.8790041e-02 0.0000000e+00 
-1.3896384e-03 2.8741704e-02 0.0000000e+00 
-2.7802095e-03 2.8703355e-02 0.0000000e+00 
1.3793230e-03 3.0731521e-02 0.0000000e+00 
-4.7655565e-05 3.0670648e-02 0.0000000e+00 
-1.4749282e-03 3.0619642e-02 0.0000000e+00 
-2.9033200e-03 3.0578465e-02 0.0000000e+00 
1.3651365e-03 3.2664654e-02 0.0000000e+00 
-9.9020407e-05 3.2601255e-02 0.0000000e+00 
-1.5634810e-03 3.2547554e-02 0.0000000e+00 
-3.0290623e-03 3.2503510e-02 0.0000000e+00 
1.3464073e-03 3.4646996e-02 0.0000000e+00 
-1.5430595e-04 3.4581034e-02 0.0000000e+00 
-1.6553317e-03 3.4524615e-02 0.0000000e+00 
-3.1574822e-03 3.4477697e-02 0.0000000e+00 
1.3231155e-03 3.6677682e-02 0.0000000e+00 
-2.1353757e-04 3.6609151e-02 0.0000000e+00 
-1.7505112e-03 3.6549994e-02 0.0000000e+00 
-3.2886092e-03 3.6500169e-02 0.0000000e+00 
1.2952427e-03 3.8755924e-02 0.0000000e+00 
-2.7673777e-04 3.8684789e-02 0.0000000e+00 
-1.8490460e-03 3.8622878e-02 0.0000000e+00 
-3.4224815e-03 3.8570143e-02 0.0000000e+00 
1.2627775e-03 4.0880865e-02 0.0000000e+00 
-3.4392396e-04 4.0807128e-02 0.0000000e+00 
-1.9509597e-03 4.0742448e-02 0.0000000e+00 
-3.5591204e-03 4.0686779e-02 0.0000000e+00 
1.2257087e-03 4.3051733e-02 0.0000000e+00 
-4.1511170e-04 4.2975366e-02 0.0000000e+00 
-2.0562706e-03 4.2907905e-02 0.0000000e+00 
-3.6985567e-03 4.2849303e-02 0.0000000e+00 
1.1840322e-03 4.5267693e-02 0.0000000e+00 
-4.9030686e-04 4.5188692e-02 0.0000000e+00 
-2.1649962e-03 4.5118442e-02 0.0000000e+00 
-3.8408064e-03 4.5056894e-02 0.0000000e+00 
1.1377530e-03 4.7527946e-02 0.0000000e+00 
-5.6952096e-04 4.7446311e-02 0.0000000e+00 
-2.2771479e-03 4.7373267e-02 0.0000000e+00 
-3.9858929e-03 4.7308767e-02 0.0000000e+00 
1.0868694e-03 4.9831747e-02 0.0000000e+00 
-6.5275548e-04 4.9747455e-02 0.0000000e+00 
-2.3927373e-03 4.9671611e-02 0.0000000e+00 
-4.1338367e-03 4.9604163e-02 0.0000000e+00 
1.0313879e-03 5.2178270e-02 0.0000000e+00 
-7.4001123e-04 5.2091338e-02 0.0000000e+00 
-2.5117708e-03 5.2012696e-02 0.0000000e+00 
-4.2846423e-03 5.1942292e-02 0.0000000e+00 
9.7131319e-04 5.4566795e-02 0.0000000e+00 
-8.3128717e-04 5.4477203e-02 0.0000000e+00 
-2.6342505e-03 5.4395759e-02 0.0000000e+00 
-4.4383244e-03 5.4322408e-02 0.0000000e+00 
9.0665776e-04 5.6996506e-02 0.0000000e+00 
-9.2657709e-04 5.6904276e-02 0.0000000e+00 
-2.7601773e-03 5.6820037e-02 0.0000000e+00 
-4.5948813e-03 5.6743738e-02 0.0000000e+00 
8.3743222e-04 5.9466700e-02 0.0000000e+00 
-1.0258742e-03 5.9371813e-02 0.0000000e+00 
-2.8895474e-03 5.9284781e-02 0.0000000e+00 
-4.7543217e-03 5.9205545e-02 0.0000000e+00 
7.6365483e-04 6.1976569e-02 0.0000000e+00 
-1.1291665e-03 6.1879056e-02 0.0000000e+00 
-3.0223559e-03 6.1789241e-02 0.0000000e+00 
-4.9166385e-03 6.1707074e-02 0.0000000e+00 
6.8534178e-04 6.4525431e-02 0.0000000e+00 
-1.2364417e-03 6.4425274e-02 0.0000000e+00 
-3.1585934e-03 6.4332682e-02 0.0000000e+00 
-5.0818347e-03 6.4247595e-02 0.0000000e+00 
6.0251657e-04 6.7112486e-02 0.0000000e+00 
-1.3476822e-03 6.7009721e-02 0.0000000e+00 
-3.2982498e-03 6.6914368e-02 0.0000000e+00 
-5.2498980e-03 6.6826373e-02 0.0000000e+00 
5.1520064e-04 6.9737070e-02 0.0000000e+00 
-1.4628710e-03 6.9631681e-02 0.0000000e+00 
-3.4413105e-03 6.9533574e-02 0.0000000e+00 
-5.4208262e-03 6.9442686e-02 0.0000000e+00 
4.2342228e-04 7.2398392e-02 0.0000000e+00 
-1.5819853e-03 7.2290421e-02 0.0000000e+00 
-3.5877607e-03 7.2189581e-02 0.0000000e+00 
-5.5946022e-03 7.2095817e-02 0.0000000e+00 
3.2720779e-04 7.5095805e-02 0.0000000e+00 
-1.7050037e-03 7.4985240e-02 0.0000000e+00 
-3.7375808e-03 7.4881677e-02 0.0000000e+00 
-5.7712189e-03 7.4785052e-02 0.0000000e+00 
2.2659017e-04 7.7828531e-02 0.0000000e+00 
-1.8318986e-03 7.7715415e-02 0.0000000e+00 
-3.8907519e-03 7.7609155e-02 0.0000000e+00 
-5.9506546e-03 7.7509693e-02 0.0000000e+00 
1.2160072e-04 8.0595939e-02 0.0000000e+00 
-1.9626452e-03 8.0480264e-02 0.0000000e+00 
-4.0472496e-03 8.0371316e-02 0.0000000e+00 
-6.1328970e-03 8.0269033e-02 0.0000000e+00 
1.2273328e-05 8.3397275e-02 0.0000000e+00 
-2.0972050e-03 8.3279075e-02 0.0000000e+00 
-4.2070488e-03 8.3167466e-02 0.0000000e+00 
-6.3179241e-03 8.3062386e-02 0.0000000e+00 
-1.0134566e-04 8.6231853e-02 0.0000000e+00 
-2.2355558e-03 8.6111161e-02 0.0000000e+00 
-4.3701271e-03 8.5996919e-02 0.0000000e+00 
-6.5057185e-03 8.5889072e-02 0.0000000e+00 
-2.1922119e-04 8.9099061e-02 0.0000000e+00 
-2.3776604e-03 8.8975868e-02 0.0000000e+00 
-4.5364560e-03 8.8859007e-02 0.0000000e+00 
-6.6962639e-03 8.8748410e-02 0.0000000e+00 
-3.4131176e-04 9.1998149e-02 0.0000000e+00 
-2.5234820e-03 9.1872512e-02 0.0000000e+00 
-4.7060066e-03 9.1753064e-02 0.0000000e+00 
-6.8895311e-03 9.1639751e-02 0.0000000e+00 
-4.6757700e-04 9.4928539e-02 0.0000000e+00 
-2.6729872e-03 9.4800448e-02 0.0000000e+00 
-4.8787466e-03 9.4678433e-02 0.0000000e+00 
-7.0854981e-03 9.4562421e-02 0.0000000e+00 
-5.9797276e-04 9.7889491e-02 0.0000000e+00 
-2.8261352e-03 9.7759008e-02 0.0000000e+00 
-5.0546445e-03 9.7634459e-02 0.0000000e+00 
-7.2841327e-03 9.7515788e-02 0.0000000e+00 
-7.3245576e-04 1.0088044e-01 0.0000000e+00 
-2.9828897e-03 1.0074756e-01 0.0000000e+00 
-5.2336644e-03 1.0062050e-01 0.0000000e+00 
-7.4854097e-03 1.0049919e-01 0.0000000e+00 
-8.7097896e-04 1.0390067e-01 0.0000000e+00 
-3.1432065e-03 1.0376545e-01 0.0000000e+00 
-5.4157720e-03 1.0363591e-01 0.0000000e+00 
-7.6892944e-03 1.0351200e-01 0.0000000e+00 
-1.0134962e-03 1.0694962e-01 0.0000000e+00 
-3.3070467e-03 1.0681206e-01 0.0000000e+00 
-5.6009285e-03 1.0668007e-01 0.0000000e+00 
-7.8957584e-03 1.0655358e-01 0.0000000e+00 
-1.1599578e-03 1.1002659e-01 0.0000000e+00 
-3.4743633e-03 1.0988674e-01 0.0000000e+00 
-5.7890970e-03 1.0975234e-01 0.0000000e+00 
-8.1047645e-03 1.0962331e-01 0.0000000e+00 
-1.3103150e-03 1.1313103e-01 0.0000000e+00 
-3.6451151e-03 1.1298890e-01 0.0000000e+00 
-5.9802361e-03 1.1285211e-01 0.0000000e+00 
-8.3162817e-03 1.1272057e-01 0.0000000e+00 
-1.4645159e-03 1.1626225e-01 0.0000000e+00 
-3.8192526e-03 1.1611790e-01 0.0000000e+00 
-6.1743066e-03 1.1597876e-01 0.0000000e+00 
-8.5302706e-03 1.1584476e-01 0.0000000e+00 
-1.6225094e-03 1.1941972e-01 0.0000000e+00 
-3.9967323e-03 1.1927316e-01 0.0000000e+00 
-6.3712648e-03 1.1913169e-01 0.0000000e+00 
-8.7466978e-03 1.1899525e-01 0.0000000e+00 
-1.7842410e-03 1.2260277e-01 0.0000000e+00 
-4.1775027e-03 1.2245406e-01 0.0000000e+00 
-6.5710699e-03 1.2231031e-01 0.0000000e+00 
-8.9655214e-03 1.2217147e-01 0.0000000e+00 
-1.9496571e-03 1.2581088e-01 0.0000000e+00 
-4.3615196e-03 1.2566001e-01 0.0000000e+00 
-6.7736756e-03 1.2551401e-01 0.0000000e+00 
-9.1867054e-03 1.2537280e-01 0.0000000e+00 
-2.1187060e-03 1.2904340e-01 0.0000000e+00 
-4.5487216e-03 1.2889043e-01 0.0000000e+00 
-6.9790357e-03 1.2874221e-01 0.0000000e+00 
-9.4102099e-03 1.2859867e-01 0.0000000e+00 
-2.2913205e-03 1.3229974e-01 0.0000000e+00 
-4.7390704e-03 1.3214473e-01 0.0000000e+00 
-7.1871115e-03 1.3199434e-01 0.0000000e+00 
-9.6359969e-03 1.3184852e-01 0.0000000e+00 
-2.4674483e-03 1.3557942e-01 0.0000000e+00 
-4.9325105e-03 1.3542236e-01 0.0000000e+00 
-7.3978547e-03 1.3526982e-01 0.0000000e+00 
-9.8640325e-03 1.3512174e-01 0.0000000e+00 
-2.6470312e-03 1.3888179e-01 0.0000000e+00 
-5.1289870e-03 1.3872275e-01 0.0000000e+00 
-7.6112207e-03 1.3856811e-01 0.0000000e+00 
-1.0094272e-02 1.3841782e-01 0.0000000e+00 
-2.8300129e-03 1.4220638e-01 0.0000000e+00 
-5.3284523e-03 1.4204535e-01 0.0000000e+00 
-7.8271608e-03 1.4188864e-01 0.0000000e+00 
-1.0326677e-02 1.4173617e-01 0.0000000e+00 
-3.0163348e-03 1.4555254e-01 0.0000000e+00 
-5.5308499e-03 1.4538962e-01 0.0000000e+00 
-8.0456298e-03 1.4523089e-01 0.0000000e+00 
-1.0561201e-02 1.4507629e-01 0.0000000e+00 
-3.2059399e-03 1.4891986e-01 0.0000000e+00 
-5.7361308e-03 1.4875502e-01 0.0000000e+00 
-8.2665775e-03 1.4859429e-01 0.0000000e+00 
-1.0797805e-02 1.4843759e-01 0.0000000e+00 
-3.3987685e-03 1.5230767e-01 0.0000000e+00 
-5.9442375e-03 1.5214101e-01 0.0000000e+00 
-8.4899580e-03 1.5197833e-01 0.0000000e+00 
-1.1036443e-02 1.5181958e-01 0.0000000e+00 
-3.5947631e-03 1.5571558e-01 0.0000000e+00 
-6.1551205e-03 1.5554708e-01 0.0000000e+00 
-8.7157201e-03 1.5538248e-01 0.0000000e+00 
-1.1277074e-02 1.5522171e-01 0.0000000e+00 
-3.7938629e-03 1.5914295e-01 0.0000000e+00 
-6.3687213e-03 1.5897270e-01 0.0000000e+00 
-8.9438174e-03 1.5880623e-01 0.0000000e+00 
-1.1519651e-02 1.5864348e-01 0.0000000e+00 
-3.9960099e-03 1.6258937e-01 0.0000000e+00 
-6.5849898e-03 1.6241736e-01 0.0000000e+00 
-9.1741980e-03 1.6224905e-01 0.0000000e+00 
-1.1764133e-02 1.6208436e-01 0.0000000e+00 
-4.2011428e-03 1.6605424e-01 0.0000000e+00 
-6.8038669e-03 1.6588055e-01 0.0000000e+00 
-9.4068150e-03 1.6571044e-01 0.0000000e+00 
-1.2010473e-02 1.6554387e-01 0.0000000e+00 
-4.4092034e-03 1.6953716e-01 0.0000000e+00 
-7.0253025e-03 1.6936179e-01 0.0000000e+00 
-9.6416161e-03 1.6918992e-01 0.0000000e+00 
-1.2258629e-02 1.6902148e-01 0.0000000e+00 
-4.6201291e-03 1.7303754e-01 0.0000000e+00 
-7.2492371e-03 1.7286057e-01 0.0000000e+00 
-9.8785547e-03 1.7268698e-01 0.0000000e+00 
-1.2508553e-02 1.7251674e-01 0.0000000e+00 
-4.8338609e-03 1.7655500e-01 0.0000000e+00 
-7.4756217e-03 1.7637642e-01 0.0000000e+00 
-1.0117578e-02 1.7620115e-01 0.0000000e+00 
-1.2760203e-02 1.7602911e-01 0.0000000e+00 
-5.0503428e-03 1.8008898e-01 0.0000000e+00 
-7.7043868e-03 1.7990885e-01 0.0000000e+00 
-1.0358632e-02 1.7973193e-01 0.0000000e+00 
-1.3013534e-02 1.7955817e-01 0.0000000e+00 
-5.2695016e-03 1.8363901e-01 0.0000000e+00 
-7.9354934e-03 1.8345739e-01 0.0000000e+00 
-1.0601678e-02 1.8327888e-01 0.0000000e+00 
-1.3268502e-02 1.8310343e-01 0.0000000e+00 
-5.4912825e-03 1.8720471e-01 0.0000000e+00 
-8.1688814e-03 1.8702159e-01 0.0000000e+00 
-1.0846663e-02 1.8684151e-01 0.0000000e+00 
-1.3525072e-02 1.8666440e-01 0.0000000e+00 
-5.7156240e-03 1.9078553e-01 0.0000000e+00 
-8.4044919e-03 1.9060100e-01 0.0000000e+00 
-1.1093539e-02 1.9041940e-01 0.0000000e+00 
-1.3783197e-02 1.9024069e-01 0.0000000e+00 
-5.9424680e-03 1.9438114e-01 0.0000000e+00 
-8.6422768e-03 1.9419518e-01 0.0000000e+00 
-1.1342255e-02 1.9401209e-01 0.0000000e+00 
-1.4042834e-02 1.9383180e-01 0.0000000e+00 
-6.1717543e-03 1.9799098e-01 0.0000000e+00 
-8.8821769e-03 1.9780369e-01 0.0000000e+00 
-1.1592765e-02 1.9761916e-01 0.0000000e+00 
-1.4303937e-02 1.9743734e-01 0.0000000e+00 
-6.4034260e-03 2.0161475e-01 0.0000000e+00 
-9.1241443e-03 2.0142610e-01 0.0000000e+00 
-1.1845018e-02 2.0124015e-01 0.0000000e+00 
-1.4566466e-02 2.0105683e-01 0.0000000e+00 
-6.6374234e-03 2.0525189e-01 0.0000000e+00 
-9.3681201e-03 2.0506198e-01 0.0000000e+00 
-1.2098969e-02 2.0487467e-01 0.0000000e+00 
-1.4830376e-02 2.0468991e-01 0.0000000e+00 
-6.8736898e-03 2.0890212e-01 0.0000000e+00 
-9.6140571e-03 2.0871093e-01 0.0000000e+00 
-1.2354566e-02 2.0852228e-01 0.0000000e+00 
-1.5095624e-02 2.0833609e-01 0.0000000e+00 
-7.1121663e-03 2.1256490e-01 0.0000000e+00 
-9.8618966e-03 2.1237252e-01 0.0000000e+00 
-1.2611766e-02 2.1218258e-01 0.0000000e+00 
-1.5362167e-02 2.1199503e-01 0.0000000e+00 
-7.3527970e-03 2.1623996e-01 0.0000000e+00 
-1.0111592e-02 2.1604637e-01 0.0000000e+00 
-1.2870516e-02 2.1585516e-01 0.0000000e+00 
-1.5629963e-02 2.1566625e-01 0.0000000e+00 
-7.5955236e-03 2.1992676e-01 0.0000000e+00 
-1.0363086e-02 2.1973205e-01 0.0000000e+00 
-1.3130775e-02 2.1953963e-01 0.0000000e+00 
-1.5898969e-02 2.1934944e-01 0.0000000e+00 
-7.8402909e-03 2.2362505e-01 0.0000000e+00 
-1.0616333e-02 2.2342921e-01 0.0000000e+00 
-1.3392490e-02 2.2323559e-01 0.0000000e+00 
-1.6169144e-02 2.2304413e-01 0.0000000e+00 
-8.0870408e-03 2.2733432e-01 0.0000000e+00 
-1.0871274e-02 2.2713743e-01 0.0000000e+00 
-1.3655621e-02 2.2694267e-01 0.0000000e+00 
-1.6440446e-02 2.2675000e-01 0.0000000e+00 
-8.3357180e-03 2.3105431e-01 0.0000000e+00 
-1.1127869e-02 2.3085636e-01 0.0000000e+00 
-1.3920116e-02 2.3066048e-01 0.0000000e+00 
-1.6712832e-02 2.3046661e-01 0.0000000e+00 
-8.5862734e-03 2.3478457e-01 0.0000000e+00 
-1.1386048e-02 2.3458561e-01 0.0000000e+00 
-1.4185927e-02 2.3438865e-01 0.0000000e+00 
-1.6986265e-02 2.3419363e-01 0.0000000e+00 
-8.8386384e-03 2.3852471e-01 0.0000000e+00 
-1.1645781e-02 2.3832481e-01 0.0000000e+00 
-1.4453022e-02 2.3812681e-01 0.0000000e+00 
-1.7260704e-02 2.3793070e-01 0.0000000e+00 
-9.0927639e-03 2.4227450e-01 0.0000000e+00 
-1.1907013e-02 2.4207363e-01 0.0000000e+00 
-1.4721350e-02 2.4187462e-01 0.0000000e+00 
-1.7536118e-02 2.4167742e-01 0.0000000e+00 
-9.3485953e-03 2.4603345e-01 0.0000000e+00 
-1.2169689e-02 2.4583170e-01 0.0000000e+00 
-1.4990870e-02 2.4563173e-01 0.0000000e+00 
-1.7812465e-02 2.4543350e-01 0.0000000e+00 
-9.6060805e-03 2.4980136e-01 0.0000000e+00 
-1.2433770e-02 2.4959871e-01 0.0000000e+00 
-1.5261536e-02 2.4939779e-01 0.0000000e+00 
-1.8089710e-02 2.4919854e-01 0.0000000e+00 
-9.8651669e-03 2.5357777e-01 0.0000000e+00 
-1.2699201e-02 2.5337430e-01 0.0000000e+00 
-1.5533311e-02 2.5317248e-01 0.0000000e+00 
-1.8367812e-02 2.5297228e-01 0.0000000e+00 
-1.0125804e-02 2.5736247e-01 0.0000000e+00 
-1.2965944e-02 2.5715817e-01 0.0000000e+00 
-1.5806148e-02 2.5695547e-01 0.0000000e+00 
-1.8646737e-02 2.5675431e-01 0.0000000e+00 
-1.0387941e-02 2.6115502e-01 0.0000000e+00 
-1.3233944e-02 2.6094997e-01 0.0000000e+00 
-1.6080011e-02 2.6074644e-01 0.0000000e+00 
-1.8926447e-02 2.6054440e-01 0.0000000e+00 
-1.0651529e-02 2.6495524e-01 0.0000000e+00 
-1.3503165e-02 2.6474941e-01 0.0000000e+00 
-1.6354855e-02 2.6454506e-01 0.0000000e+00 
-1.9206907e-02 2.6434213e-01 0.0000000e+00 
-1.0916517e-02 2.6876269e-01 0.0000000e+00 
-1.3773554e-02 2.6855617e-01 0.0000000e+00 
-1.6630644e-02 2.6835104e-01 0.0000000e+00 
-1.9488080e-02 2.6814730e-01 0.0000000e+00 
-1.1182859e-02 2.7257719e-01 0.0000000e+00 
-1.4045074e-02 2.7236995e-01 0.0000000e+00 
-1.6907335e-02 2.7216407e-01 0.0000000e+00 
-1.9769935e-02 2.7195950e-01 0.0000000e+00 
-1.1450504e-02 2.7639832e-01 0.0000000e+00 
-1.4317677e-02 2.7619045e-01 0.0000000e+00 
-1.7184894e-02 2.7598386e-01 0.0000000e+00 
-2.0052435e-02 2.7577854e-01 0.0000000e+00 
-1.1719407e-02 2.8022592e-01 0.0000000e+00 
-1.4591325e-02 2.8001739e-01 0.0000000e+00 
-1.7463278e-02 2.7981011e-01 0.0000000e+00 
-2.0335549e-02 2.7960403e-01 0.0000000e+00 
-1.1989519e-02 2.8405958e-01 0.0000000e+00 
-1.4865970e-02 2.8385048e-01 0.0000000e+00 
-1.7742456e-02 2.8364255e-01 0.0000000e+00 
-2.0619242e-02 2.8343577e-01 0.0000000e+00 
-1.2260794e-02 2.8789916e-01 0.0000000e+00 
-1.5141579e-02 2.8768946e-01 0.0000000e+00 
-1.8022385e-02 2.8748089e-01 0.0000000e+00 
-2.0903483e-02 2.8727341e-01 0.0000000e+00 
-1.2533195e-02 2.9174428e-01 0.0000000e+00 
-1.5418096e-02 2.9153403e-01 0.0000000e+00 
-1.8303027e-02 2.9132486e-01 0.0000000e+00 
-2.1188244e-02 2.9111673e-01 0.0000000e+00 
-1.2806662e-02 2.9559468e-01 0.0000000e+00 
-1.5695498e-02 2.9538393e-01 0.0000000e+00 
-1.8584360e-02 2.9517420e-01 0.0000000e+00 