# vtk DataFile Version 4.0
vtk output
ASCII
DATASET UNSTRUCTURED_GRID
POINTS 604 float
5.5000000e+00 5.9700000e+00 0.0000000e+00 
5.5000000e+00 5.9900000e+00 0.0000000e+00 
5.5266667e+00 5.9700000e+00 0.0000000e+00 
5.5266667e+00 5.9900000e+00 0.0000000e+00 
5.5000000e+00 6.0100000e+00 0.0000000e+00 
5.5266667e+00 6.0100000e+00 0.0000000e+00 
5.5533333e+00 5.9700000e+00 0.0000000e+00 
5.5533333e+00 5.9900000e+00 0.0000000e+00 
5.5000000e+00 6.0300000e+00 0.0000000e+00 
5.5266667e+00 6.0300000e+00 0.0000000e+00 
5.5533333e+00 6.0100000e+00 0.0000000e+00 
5.5800000e+00 5.9700000e+00 0.0000000e+00 
5.5533333e+00 6.0300000e+00 0.0000000e+00 
5.5800000e+00 5.9900000e+00 0.0000000e+00 
5.5800000e+00 6.0100000e+00 0.0000000e+00 
5.5800000e+00 6.0300000e+00 0.0000000e+00 
5.6066667e+00 5.9700000e+00 0.0000000e+00 
5.6066667e+00 5.9900000e+00 0.0000000e+00 
5.6066667e+00 6.0100000e+00 0.0000000e+00 
5.6066667e+00 6.0300000e+00 0.0000000e+00 
5.6333333e+00 5.9700000e+00 0.0000000e+00 
5.6333333e+00 5.9900000e+00 0.0000000e+00 
5.6333333e+00 6.0100000e+00 0.0000000e+00 
5.6333333e+00 6.0300000e+00 0.0000000e+00 
5.6600000e+00 5.9700000e+00 0.0000000e+00 
5.6600000e+00 5.9900000e+00 0.0000000e+00 
5.6600000e+00 6.0100000e+00 0.0000000e+00 
5.6600000e+00 6.0300000e+00 0.0000000e+00 
5.6866667e+00 5.9700000e+00 0.0000000e+00 
5.6866667e+00 5.9900000e+00 0.0000000e+00 
5.6866667e+00 6.0100000e+00 0.0000000e+00 
5.6866667e+00 6.0300000e+00 0.0000000e+00 
5.7133333e+00 5.9700000e+00 0.0000000e+00 
5.7133333e+00 5.9900000e+00 0.0000000e+00 
5.7133333e+00 6.0100000e+00 0.0000000e+00 
5.7133333e+00 6.0300000e+00 0.0000000e+00 
5.7400000e+00 5.9700000e+00 0.0000000e+00 
5.7400000e+00 5.9900000e+00 0.0000000e+00 
5.7400000e+00 6.0100000e+00 0.0000000e+00 
5.7400000e+00 6.0300000e+00 0.0000000e+00 
5.7666667e+00 5.9700000e+00 0.0000000e+00 
5.7666667e+00 5.9900000e+00 0.0000000e+00 
5.7666667e+00 6.0100000e+00 0.0000000e+00 
5.7666667e+00 6.0300000e+00 0.0000000e+00 
5.7933333e+00 5.9700000e+00 0.0000000e+00 
5.7933333e+00 5.9900000e+00 0.0000000e+00 
5.7933333e+00 6.0100000e+00 0.0000000e+00 
5.7933333e+00 6.0300000e+00 0.0000000e+00 
5.8200000e+00 5.9700000e+00 0.0000000e+00 
5.8200000e+00 5.9900000e+00 0.0000000e+00 
5.8200000e+00 6.0100000e+00 0.0000000e+00 
5.8200000e+00 6.0300000e+00 0.0000000e+00 
5.8466667e+00 5.9700000e+00 0.0000000e+00 
5.8466667e+00 5.9900000e+00 0.0000000e+00 
5.8466667e+00 6.0100000e+00 0.0000000e+00 
5.8466667e+00 6.0300000e+00 0.0000000e+00 
5.8733333e+00 5.9700000e+00 0.0000000e+00 
5.8733333e+00 5.9900000e+00 0.0000000e+00 
5.8733333e+00 6.0100000e+00 0.0000000e+00 
5.8733333e+00 6.0300000e+00 0.0000000e+00 
5.9000000e+00 5.9700000e+00 0.0000000e+00 
5.9000000e+00 5.9900000e+00 0.0000000e+00 
5.9000000e+00 6.0100000e+00 0.0000000e+00 
5.9000000e+00 6.0300000e+00 0.0000000e+00 
5.9266667e+00 5.9700000e+00 0.0000000e+00 
5.9266667e+00 5.9900000e+00 0.0000000e+00 
5.9266667e+00 6.0100000e+00 0.0000000e+00 
5.9266667e+00 6.0300000e+00 0.0000000e+00 
5.9533333e+00 5.9700000e+00 0.0000000e+00 
5.9533333e+00 5.9900000e+00 0.0000000e+00 
5.9533333e+00 6.0100000e+00 0.0000000e+00 
5.9533333e+00 6.0300000e+00 0.0000000e+00 
5.9800000e+00 5.9700000e+00 0.0000000e+00 
5.9800000e+00 5.9900000e+00 0.0000000e+00 
5.9800000e+00 6.0100000e+00 0.0000000e+00 
5.9800000e+00 6.0300000e+00 0.0000000e+00 
6.0066667e+00 5.9700000e+00 0.0000000e+00 
6.0066667e+00 5.9900000e+00 0.0000000e+00 
6.0066667e+00 6.0100000e+00 0.0000000e+00 
6.0066667e+00 6.0300000e+00 0.0000000e+00 
6.0333333e+00 5.9700000e+00 0.0000000e+00 
6.0333333e+00 5.9900000e+00 0.0000000e+00 
6.0333333e+00 6.0100000e+00 0.0000000e+00 
6.0333333e+00 6.0300000e+00 0.0000000e+00 
6.0600000e+00 5.9700000e+00 0.0000000e+00 
6.0600000e+00 5.9900000e+00 0.0000000e+00 
6.0600000e+00 6.0100000e+00 0.0000000e+00 
6.0600000e+00 6.0300000e+00 0.0000000e+00 
6.0866667e+00 5.9700000e+00 0.0000000e+00 
6.0866667e+00 5.9900000e+00 0.0000000e+00 
6.0866667e+00 6.0100000e+00 0.0000000e+00 
6.0866667e+00 6.0300000e+00 0.0000000e+00 
6.1133333e+00 5.9700000e+00 0.0000000e+00 
6.1133333e+00 5.9900000e+00 0.0000000e+00 
6.1133333e+00 6.0100000e+00 0.0000000e+00 
6.1133333e+00 6.0300000e+00 0.0000000e+00 
6.1400000e+00 5.9700000e+00 0.0000000e+00 
6.1400000e+00 5.9900000e+00 0.0000000e+00 
6.1400000e+00 6.0100000e+00 0.0000000e+00 
6.1400000e+00 6.0300000e+00 0.0000000e+00 
6.1666667e+00 5.9700000e+00 0.0000000e+00 
6.1666667e+00 5.9900000e+00 0.0000000e+00 
6.1666667e+00 6.0100000e+00 0.0000000e+00 
6.1666667e+00 6.0300000e+00 0.0000000e+00 
6.1933333e+00 5.9700000e+00 0.0000000e+00 
6.1933333e+00 5.9900000e+00 0.0000000e+00 
6.1933333e+00 6.0100000e+00 0.0000000e+00 
6.1933333e+00 6.0300000e+00 0.0000000e+00 
6.2200000e+00 5.9700000e+00 0.0000000e+00 
6.2200000e+00 5.9900000e+00 0.0000000e+00 
6.2200000e+00 6.0100000e+00 0.0000000e+00 
6.2200000e+00 6.0300000e+00 0.0000000e+00 
6.2466667e+00 5.9700000e+00 0.0000000e+00 
6.2466667e+00 5.9900000e+00 0.0000000e+00 
6.2466667e+00 6.0100000e+00 0.0000000e+00 
6.2466667e+00 6.0300000e+00 0.0000000e+00 
6.2733333e+00 5.9700000e+00 0.0000000e+00 
6.2733333e+00 5.9900000e+00 0.0000000e+00 
6.2733333e+00 6.0100000e+00 0.0000000e+00 
6.2733333e+00 6.0300000e+00 0.0000000e+00 
6.3000000e+00 5.9700000e+00 0.0000000e+00 
6.3000000e+00 5.9900000e+00 0.0000000e+00 
6.3000000e+00 6.0100000e+00 0.0000000e+00 
6.3000000e+00 6.0300000e+00 0.0000000e+00 
6.3266667e+00 5.9700000e+00 0.0000000e+00 
6.3266667e+00 5.9900000e+00 0.0000000e+00 
6.3266667e+00 6.0100000e+00 0.0000000e+00 
6.3266667e+00 6.0300000e+00 0.0000000e+00 
6.3533333e+00 5.9700000e+00 0.0000000e+00 
6.3533333e+00 5.9900000e+00 0.0000000e+00 
6.3533333e+00 6.0100000e+00 0.0000000e+00 
6.3533333e+00 6.0300000e+00 0.0000000e+00 
6.3800000e+00 5.9700000e+00 0.0000000e+00 
6.3800000e+00 5.9900000e+00 0.0000000e+00 
6.3800000e+00 6.0100000e+00 0.0000000e+00 
6.3800000e+00 6.0300000e+00 0.0000000e+00 
6.4066667e+00 5.9700000e+00 0.0000000e+00 
6.4066667e+00 5.9900000e+00 0.0000000e+00 
6.4066667e+00 6.0100000e+00 0.0000000e+00 
6.4066667e+00 6.0300000e+00 0.0000000e+00 
6.4333333e+00 5.9700000e+00 0.0000000e+00 
6.4333333e+00 5.9900000e+00 0.0000000e+00 
6.4333333e+00 6.0100000e+00 0.0000000e+00 
6.4333333e+00 6.0300000e+00 0.0000000e+00 
6.4600000e+00 5.9700000e+00 0.0000000e+00 
6.4600000e+00 5.9900000e+00 0.0000000e+00 
6.4600000e+00 6.0100000e+00 0.0000000e+00 
6.4600000e+00 6.0300000e+00 0.0000000e+00 
6.4866667e+00 5.9700000e+00 0.0000000e+00 
6.4866667e+00 5.9900000e+00 0.0000000e+00 
6.4866667e+00 6.0100000e+00 0.0000000e+00 
6.4866667e+00 6.0300000e+00 0.0000000e+00 
6.5133333e+00 5.9700000e+00 0.0000000e+00 
6.5133333e+00 5.9900000e+00 0.0000000e+00 
6.5133333e+00 6.0100000e+00 0.0000000e+00 
6.5133333e+00 6.0300000e+00 0.0000000e+00 
6.5400000e+00 5.9700000e+00 0.0000000e+00 
6.5400000e+00 5.9900000e+00 0.0000000e+00 
6.5400000e+00 6.0100000e+00 0.0000000e+00 
6.5400000e+00 6.0300000e+00 0.0000000e+00 
6.5666667e+00 5.9700000e+00 0.0000000e+00 
6.5666667e+00 5.9900000e+00 0.0000000e+00 
6.5666667e+00 6.0100000e+00 0.0000000e+00 
6.5666667e+00 6.0300000e+00 0.0000000e+00 
6.5933333e+00 5.9700000e+00 0.0000000e+00 
6.5933333e+00 5.9900000e+00 0.0000000e+00 
6.5933333e+00 6.0100000e+00 0.0000000e+00 
6.5933333e+00 6.0300000e+00 0.0000000e+00 
6.6200000e+00 5.9700000e+00 0.0000000e+00 
6.6200000e+00 5.9900000e+00 0.0000000e+00 
6.6200000e+00 6.0100000e+00 0.0000000e+00 
6.6200000e+00 6.0300000e+00 0.0000000e+00 
6.6466667e+00 5.9700000e+00 0.0000000e+00 
6.6466667e+00 5.9900000e+00 0.0000000e+00 
6.6466667e+00 6.0100000e+00 0.0000000e+00 
6.6466667e+00 6.0300000e+00 0.0000000e+00 
6.6733333e+00 5.9700000e+00 0.0000000e+00 
6.6733333e+00 5.9900000e+00 0.0000000e+00 
6.6733333e+00 6.0100000e+00 0.0000000e+00 
6.6733333e+00 6.0300000e+00 0.0000000e+00 
6.7000000e+00 5.9700000e+00 0.0000000e+00 
6.7000000e+00 5.9900000e+00 0.0000000e+00 
6.7000000e+00 6.0100000e+00 0.0000000e+00 
6.7000000e+00 6.0300000e+00 0.0000000e+00 
6.7266667e+00 5.9700000e+00 0.0000000e+00 
6.7266667e+00 5.9900000e+00 0.0000000e+00 
6.7266667e+00 6.0100000e+00 0.0000000e+00 
6.7266667e+00 6.0300000e+00 0.0000000e+00 
6.7533333e+00 5.9700000e+00 0.0000000e+00 
6.7533333e+00 5.9900000e+00 0.0000000e+00 
6.7533333e+00 6.0100000e+00 0.0000000e+00 
6.7533333e+00 6.0300000e+00 0.0000000e+00 
6.7800000e+00 5.9700000e+00 0.0000000e+00 
6.7800000e+00 5.9900000e+00 0.0000000e+00 
6.7800000e+00 6.0100000e+00 0.0000000e+00 
6.7800000e+00 6.0300000e+00 0.0000000e+00 
6.8066667e+00 5.9700000e+00 0.0000000e+00 
6.8066667e+00 5.9900000e+00 0.0000000e+00 
6.8066667e+00 6.0100000e+00 0.0000000e+00 
6.8066667e+00 6.0300000e+00 0.0000000e+00 
6.8333333e+00 5.9700000e+00 0.0000000e+00 
6.8333333e+00 5.9900000e+00 0.0000000e+00 
6.8333333e+00 6.0100000e+00 0.0000000e+00 
6.8333333e+00 6.0300000e+00 0.0000000e+00 
6.8600000e+00 5.9700000e+00 0.0000000e+00 
6.8600000e+00 5.9900000e+00 0.0000000e+00 
6.8600000e+00 6.0100000e+00 0.0000000e+00 
6.8600000e+00 6.0300000e+00 0.0000000e+00 
6.8866667e+00 5.9700000e+00 0.0000000e+00 
6.8866667e+00 5.9900000e+00 0.0000000e+00 
6.8866667e+00 6.0100000e+00 0.0000000e+00 
6.8866667e+00 6.0300000e+00 0.0000000e+00 
6.9133333e+00 5.9700000e+00 0.0000000e+00 
6.9133333e+00 5.9900000e+00 0.0000000e+00 
6.9133333e+00 6.0100000e+00 0.0000000e+00 
6.9133333e+00 6.0300000e+00 0.0000000e+00 
6.9400000e+00 5.9700000e+00 0.0000000e+00 
6.9400000e+00 5.9900000e+00 0.0000000e+00 
6.9400000e+00 6.0100000e+00 0.0000000e+00 
6.9400000e+00 6.0300000e+00 0.0000000e+00 
6.9666667e+00 5.9700000e+00 0.0000000e+00 
6.9666667e+00 5.9900000e+00 0.0000000e+00 
6.9666667e+00 6.0100000e+00 0.0000000e+00 
6.9666667e+00 6.0300000e+00 0.0000000e+00 
6.9933333e+00 5.9700000e+00 0.0000000e+00 
6.9933333e+00 5.9900000e+00 0.0000000e+00 
6.9933333e+00 6.0100000e+00 0.0000000e+00 
6.9933333e+00 6.0300000e+00 0.0000000e+00 
7.0200000e+00 5.9700000e+00 0.0000000e+00 
7.0200000e+00 5.9900000e+00 0.0000000e+00 
[...]
POINT_DATA 604
FIELD FieldData 2
DISPLACEMENT 3 604  float
0.0000000e+00 0.0000000e+00 0.0000000e+00 
0.0000000e+00 0.0000000e+00 0.0000000e+00 
3.8999329e-05 2.3602703e-05 0.0000000e+00 
1.2338368e-05 1.5389360e-05 0.0000000e+00 
0.0000000e+00 0.0000000e+00 0.0000000e+00 
-1.2491739e-05 1.5374858e-05 0.0000000e+00 
7.8559163e-05 7.5865322e-05 0.0000000e+00 
2.6046609e-05 6.9030646e-05 0.0000000e+00 
0.0000000e+00 0.0000000e+00 0.0000000e+00 
-3.9167930e-05 2.3572979e-05 0.0000000e+00 
-2.6444061e-05 6.8955011e-05 0.0000000e+00 
1.1744793e-04 1.6413923e-04 0.0000000e+00 
-7.8991760e-05 7.5639902e-05 0.0000000e+00 
3.8776067e-05 1.5719734e-04 0.0000000e+00 
-3.9599030e-05 1.5704289e-04 0.0000000e+00 
-1.1832617e-04 1.6369237e-04 0.0000000e+00 
1.5551121e-04 2.8684362e-04 0.0000000e+00 
5.1246076e-05 2.7989799e-04 0.0000000e+00 
-5.2766669e-05 2.7962222e-04 0.0000000e+00 
-1.5710254e-04 2.8601432e-04 0.0000000e+00 
1.9274174e-04 4.4341189e-04 0.0000000e+00 
6.3308303e-05 4.3645147e-04 0.0000000e+00 
-6.5879395e-05 4.3603505e-04 0.0000000e+00 
-1.9539809e-04 4.4217465e-04 0.0000000e+00 
2.2910418e-04 6.3333703e-04 0.0000000e+00 
7.4937082e-05 6.2629879e-04 0.0000000e+00 
-7.8990428e-05 6.2570020e-04 0.0000000e+00 
-2.3325205e-04 6.3154279e-04 0.0000000e+00 
2.6456384e-04 8.5596739e-04 0.0000000e+00 
8.6104284e-05 8.4884044e-04 0.0000000e+00 
-9.2134631e-05 8.4804036e-04 0.0000000e+00 
-2.7071179e-04 8.5356916e-04 0.0000000e+00 
2.9910115e-04 1.1107315e-03 0.0000000e+00 
9.6765761e-05 1.1035040e-03 0.0000000e+00 
-1.0535588e-04 1.1024849e-03 0.0000000e+00 
-3.0781967e-04 1.1076823e-03 0.0000000e+00 
3.3268888e-04 1.3971292e-03 0.0000000e+00 
1.0689768e-04 1.3897441e-03 0.0000000e+00 
-1.1868668e-04 1.3884695e-03 0.0000000e+00 
-3.4461495e-04 1.3932999e-03 0.0000000e+00 
3.6529947e-04 1.7145170e-03 0.0000000e+00 
1.1647170e-04 1.7069842e-03 0.0000000e+00 
-1.3215869e-04 1.7054411e-03 0.0000000e+00 
-3.8113701e-04 1.7098954e-03 0.0000000e+00 
3.9691359e-04 2.0624205e-03 0.0000000e+00 
1.2545957e-04 2.0546855e-03 0.0000000e+00 
-1.4580372e-04 2.0528446e-03 0.0000000e+00 
-4.1741682e-04 2.0568915e-03 0.0000000e+00 
4.2750667e-04 2.4402113e-03 0.0000000e+00 
1.3383733e-04 2.4322851e-03 0.0000000e+00 
-1.5965006e-04 2.4301348e-03 0.0000000e+00 
-4.5349052e-04 2.4337661e-03 0.0000000e+00 
4.5706252e-04 2.8474207e-03 0.0000000e+00 
1.4158047e-04 2.8392533e-03 0.0000000e+00 
-1.7372558e-04 2.8367678e-03 0.0000000e+00 
-4.8938597e-04 2.8399569e-03 0.0000000e+00 
4.8556018e-04 3.2834356e-03 0.0000000e+00 
1.4866859e-04 3.2750386e-03 0.0000000e+00 
-1.8805508e-04 3.2722079e-03 0.0000000e+00 
-5.2513559e-04 3.2749471e-03 0.0000000e+00 
5.1298660e-04 3.7477929e-03 0.0000000e+00 
1.5508057e-04 3.7391207e-03 0.0000000e+00 
-2.0266298e-04 3.7359223e-03 0.0000000e+00 
-5.6076418e-04 3.7381893e-03 0.0000000e+00 
5.3932447e-04 4.2398945e-03 0.0000000e+00 
1.6079919e-04 4.2309593e-03 0.0000000e+00 
-2.1757090e-04 4.2273847e-03 0.0000000e+00 
-5.9630039e-04 4.2291724e-03 0.0000000e+00 
5.6456338e-04 4.7592833e-03 0.0000000e+00 
1.6580661e-04 4.7500436e-03 0.0000000e+00 
-2.3280000e-04 4.7460734e-03 0.0000000e+00 
-6.3176642e-04 4.7473636e-03 0.0000000e+00 
5.8868964e-04 5.3053757e-03 0.0000000e+00 
1.7008854e-04 5.2958442e-03 0.0000000e+00 
-2.4836894e-04 5.2914716e-03 0.0000000e+00 
-6.6718719e-04 5.2922578e-03 0.0000000e+00 
6.1169511e-04 5.8777212e-03 0.0000000e+00 
1.7363021e-04 5.8678601e-03 0.0000000e+00 
-2.6429578e-04 5.8630683e-03 0.0000000e+00 
-7.0258271e-04 5.8633358e-03 0.0000000e+00 
6.3356990e-04 6.4757497e-03 0.0000000e+00 
1.7641994e-04 6.4655723e-03 0.0000000e+00 
-2.8059673e-04 6.4603566e-03 0.0000000e+00 
-7.3797398e-04 6.4600999e-03 0.0000000e+00 
6.5430820e-04 7.0990183e-03 0.0000000e+00 
1.7844525e-04 7.0884913e-03 0.0000000e+00 
-2.9728649e-04 7.0828354e-03 0.0000000e+00 
-7.7337888e-04 7.0820425e-03 0.0000000e+00 
6.7390169e-04 7.7469817e-03 0.0000000e+00 
1.7970215e-04 7.7361063e-03 0.0000000e+00 
-3.1437835e-04 7.7300055e-03 0.0000000e+00 
-8.0881702e-04 7.7286716e-03 0.0000000e+00 
6.9235388e-04 8.4191501e-03 0.0000000e+00 
1.8017486e-04 8.4079274e-03 0.0000000e+00 
-3.3188758e-04 8.4013783e-03 0.0000000e+00 
-8.4430746e-04 8.3994987e-03 0.0000000e+00 
7.0965941e-04 9.1150870e-03 0.0000000e+00 
1.7986070e-04 9.1034870e-03 0.0000000e+00 
-3.4982531e-04 9.0964762e-03 0.0000000e+00 
-8.7986785e-04 9.0940423e-03 0.0000000e+00 
7.2581661e-04 9.8342568e-03 0.0000000e+00 
1.7875323e-04 9.8222964e-03 0.0000000e+00 
-3.6820147e-04 9.8148231e-03 0.0000000e+00 
-9.1551109e-04 9.8118329e-03 0.0000000e+00 
7.4082340e-04 1.0576246e-02 0.0000000e+00 
1.7684672e-04 1.0563895e-02 0.0000000e+00 
-3.8702508e-04 1.0555950e-02 0.0000000e+00 
-9.5125122e-04 1.0552396e-02 0.0000000e+00 
7.5468057e-04 1.1340529e-02 0.0000000e+00 
1.7413731e-04 1.1327807e-02 0.0000000e+00 
-4.0630452e-04 1.1319389e-02 0.0000000e+00 
-9.8709840e-04 1.1315272e-02 0.0000000e+00 
7.6738727e-04 1.2126704e-02 0.0000000e+00 
1.7062151e-04 1.2113581e-02 0.0000000e+00 
-4.2604635e-04 1.2104683e-02 0.0000000e+00 
-1.0230655e-03 1.2099997e-02 0.0000000e+00 
7.7894683e-04 1.2934252e-02 0.0000000e+00 
1.6629738e-04 1.2920750e-02 0.0000000e+00 
-4.4625710e-04 1.2911374e-02 0.0000000e+00 
-1.0591600e-03 1.2906121e-02 0.0000000e+00 
7.8935980e-04 1.3762785e-02 0.0000000e+00 
1.6116339e-04 1.3748875e-02 0.0000000e+00 
-4.6694131e-04 1.3739014e-02 0.0000000e+00 
-1.0953934e-03 1.3733187e-02 0.0000000e+00 
7.9863178e-04 1.4611792e-02 0.0000000e+00 
1.5521939e-04 1.4597498e-02 0.0000000e+00 
-4.8810377e-04 1.4587156e-02 0.0000000e+00 
-1.1317710e-03 1.4580761e-02 0.0000000e+00 
8.0676464e-04 1.5480898e-02 0.0000000e+00 
1.4846564e-04 1.5466191e-02 0.0000000e+00 
-5.0974715e-04 1.5455361e-02 0.0000000e+00 
-1.1683028e-03 1.5448393e-02 0.0000000e+00 
8.1376605e-04 1.6369599e-02 0.0000000e+00 
1.4090363e-04 1.6354505e-02 0.0000000e+00 
-5.3187465e-04 1.6343194e-02 0.0000000e+00 
-1.2049921e-03 1.6335659e-02 0.0000000e+00 
8.1963907e-04 1.7277533e-02 0.0000000e+00 
1.3253525e-04 1.7262024e-02 0.0000000e+00 
-5.5448722e-04 1.7250225e-02 0.0000000e+00 
-1.2418475e-03 1.7242118e-02 0.0000000e+00 
8.2439362e-04 1.8204203e-02 0.0000000e+00 
1.2336335e-04 1.8188308e-02 0.0000000e+00 
-5.7758694e-04 1.8176029e-02 0.0000000e+00 
-1.2788702e-03 1.8167359e-02 0.0000000e+00 
8.2803432e-04 1.9149261e-02 0.0000000e+00 
1.1339068e-04 1.9132951e-02 0.0000000e+00 
-6.0117267e-04 1.9120184e-02 0.0000000e+00 
-1.3160672e-03 1.9110946e-02 0.0000000e+00 
8.3056929e-04 2.0112233e-02 0.0000000e+00 
1.0262837e-04 2.0095523e-02 0.0000000e+00 
-6.2524290e-04 2.0082276e-02 0.0000000e+00 
-1.3534414e-03 2.0072477e-02 0.0000000e+00 
8.3201619e-04 2.1092710e-02 0.0000000e+00 
9.1071664e-05 2.1075615e-02 0.0000000e+00 
-6.4980180e-04 2.1061895e-02 0.0000000e+00 
-1.3909976e-03 2.1051545e-02 0.0000000e+00 
8.3237905e-04 2.2090352e-02 0.0000000e+00 
7.8731945e-05 2.2072843e-02 0.0000000e+00 
-6.7484590e-04 2.2058644e-02 0.0000000e+00 
-1.4287436e-03 2.2047735e-02 0.0000000e+00 
8.3167141e-04 2.3104684e-02 0.0000000e+00 
6.5614757e-05 2.3086797e-02 0.0000000e+00 
-7.0037379e-04 2.3072130e-02 0.0000000e+00 
-1.4666774e-03 2.3060678e-02 0.0000000e+00 
8.2990027e-04 2.4135398e-02 0.0000000e+00 
5.1726026e-05 2.4117101e-02 0.0000000e+00 
-7.2638198e-04 2.4101961e-02 0.0000000e+00 
-1.5048032e-03 2.4089959e-02 0.0000000e+00 
8.2707970e-04 2.5182025e-02 0.0000000e+00 
3.7073011e-05 2.5163356e-02 0.0000000e+00 
-7.5286840e-04 2.5147756e-02 0.0000000e+00 
-1.5431179e-03 2.5135222e-02 0.0000000e+00 
8.2321732e-04 2.6244269e-02 0.0000000e+00 
2.1662712e-05 2.6225196e-02 0.0000000e+00 
-7.7982820e-04 2.6209132e-02 0.0000000e+00 
-1.5816251e-03 2.6196056e-02 0.0000000e+00 
8.1832814e-04 2.7321668e-02 0.0000000e+00 
5.5034425e-06 2.7302231e-02 0.0000000e+00 
-8.0725837e-04 2.7285716e-02 0.0000000e+00 
-1.6203209e-03 2.7272120e-02 0.0000000e+00 
8.1242067e-04 2.8413941e-02 0.0000000e+00 
-1.1397013e-05 2.8394106e-02 0.0000000e+00 
-8.3515312e-04 2.8377136e-02 0.0000000e+00 
-1.6592077e-03 2.8363009e-02 0.0000000e+00 
8.0551066e-04 2.9520630e-02 0.0000000e+00 
-2.9029403e-05 2.9500440e-02 0.0000000e+00 
-8.6350861e-04 2.9483030e-02 0.0000000e+00 
-1.6982809e-03 2.9468396e-02 0.0000000e+00 
7.9760748e-04 3.0641468e-02 0.0000000e+00 
-4.7385258e-05 3.0620889e-02 0.0000000e+00 
-8.9231820e-04 3.0603035e-02 0.0000000e+00 
-1.7375418e-03 3.0587882e-02 0.0000000e+00 
7.8872747e-04 3.1776005e-02 0.0000000e+00 
-6.6454468e-05 3.1755081e-02 0.0000000e+00 
-9.2157728e-04 3.1736799e-02 0.0000000e+00 
-1.7769854e-03 3.1721153e-02 0.0000000e+00 
7.7888071e-04 3.2923985e-02 0.0000000e+00 
-8.6228018e-05 3.2902682e-02 0.0000000e+00 
-9.5127848e-04 3.2883966e-02 0.0000000e+00 
-1.8166117e-03 3.2867815e-02 0.0000000e+00 
7.6808465e-04 3.4084964e-02 0.0000000e+00 
-1.0669530e-04 3.4063328e-02 0.0000000e+00 
-9.8141696e-04 3.4044197e-02 0.0000000e+00 
-1.8564148e-03 3.4027568e-02 0.0000000e+00 
7.5635072e-04 3.5258702e-02 0.0000000e+00 
-1.2784754e-04 3.5236698e-02 0.0000000e+00 
-1.0119843e-03 3.5217144e-02 0.0000000e+00 
-1.8963934e-03 3.5200023e-02 0.0000000e+00 
7.4369145e-04 3.6444782e-02 0.0000000e+00 
-1.4966433e-04 3.6422435e-02 0.0000000e+00 
-1.0429700e-03 3.6402473e-02 0.0000000e+00 
-1.9365455e-03 3.6384880e-02 0.0000000e+00 
7.3013198e-04 3.7642875e-02 0.0000000e+00 
-1.7214881e-04 3.7620210e-02 0.0000000e+00 
-1.0743766e-03 3.7599856e-02 0.0000000e+00 
-1.9768675e-03 3.7581809e-02 0.0000000e+00 
7.1568108e-04 3.8852739e-02 0.0000000e+00 
-1.9528222e-04 3.8829720e-02 0.0000000e+00 
-1.1061921e-03 3.8808966e-02 0.0000000e+00 
-2.0173613e-03 3.8790450e-02 0.0000000e+00 
7.0035668e-04 4.0073951e-02 0.0000000e+00 
-2.1905299e-04 4.0050629e-02 0.0000000e+00 
-1.1384099e-03 4.0029494e-02 0.0000000e+00 
-2.0580208e-03 4.0010542e-02 0.0000000e+00 
6.8417144e-04 4.1306306e-02 0.0000000e+00 
-2.4345128e-04 4.1282643e-02 0.0000000e+00 
-1.1710214e-03 4.1261121e-02 0.0000000e+00 
-2.0988425e-03 4.1241717e-02 0.0000000e+00 
6.6714275e-04 4.2549387e-02 0.0000000e+00 
-2.6846450e-04 4.2525434e-02 0.0000000e+00 
-1.2040197e-03 4.2503546e-02 0.0000000e+00 
-2.1398204e-03 4.2483723e-02 0.0000000e+00 
6.4928304e-04 4.3803000e-02 0.0000000e+00 
-2.9408229e-04 4.3778718e-02 0.0000000e+00 
-1.2373955e-03 4.3756459e-02 0.0000000e+00 
-2.1809513e-03 4.3736199e-02 0.0000000e+00 
6.3060992e-04 4.5066736e-02 0.0000000e+00 
-3.2029167e-04 4.5042178e-02 0.0000000e+00 
-1.2711417e-03 4.5019568e-02 0.0000000e+00 
-2.2222288e-03 4.4998906e-02 0.0000000e+00 
6.1113613e-04 4.6340412e-02 0.0000000e+00 
-3.4708210e-04 4.6315538e-02 0.0000000e+00 
-1.3052486e-03 4.6292572e-02 0.0000000e+00 
-2.2636491e-03 4.6271489e-02 0.0000000e+00 
5.9087943e-04 4.7623625e-02 0.0000000e+00 
-3.7444030e-04 4.7598488e-02 0.0000000e+00 
-1.3397088e-03 4.7575187e-02 0.0000000e+00 
-2.3052059e-03 4.7553720e-02 0.0000000e+00 
5.6985274e-04 4.8916203e-02 0.0000000e+00 
-4.0235562e-04 4.8890764e-02 0.0000000e+00 
-1.3745125e-03 4.8867122e-02 0.0000000e+00 
-2.3468949e-03 4.8845252e-02 0.0000000e+00 
5.4807393e-04 5.0217751e-02 0.0000000e+00 
-4.3081452e-04 5.0192064e-02 0.0000000e+00 
-1.4096521e-03 5.0168103e-02 0.0000000e+00 
-2.3887097e-03 5.0145866e-02 0.0000000e+00 
5.2555599e-04 5.1528108e-02 0.0000000e+00 
-4.5980630e-04 5.1502132e-02 0.0000000e+00 
-1.4451174e-03 5.1477846e-02 0.0000000e+00 
-2.4306457e-03 5.1455223e-02 0.0000000e+00 
5.0231767e-04 5.2846885e-02 0.0000000e+00 
-4.8931759e-04 5.2820675e-02 0.0000000e+00 
-1.4809014e-03 5.2796087e-02 0.0000000e+00 
-2.4726956e-03 5.2773115e-02 0.0000000e+00 
4.7837280e-04 5.4173932e-02 0.0000000e+00 
-5.1933846e-04 5.4147450e-02 0.0000000e+00 
-1.5169934e-03 5.4122547e-02 0.0000000e+00 
-2.5148541e-03 5.4099207e-02 0.0000000e+00 
4.5373371e-04 5.5508895e-02 0.0000000e+00 
-5.4984487e-04 5.5482169e-02 0.0000000e+00 
-1.5533796e-03 5.5456971e-02 0.0000000e+00 
-2.5571189e-03 5.5433286e-02 0.0000000e+00 
4.2842818e-04 5.6851514e-02 0.0000000e+00 
-5.8084135e-04 5.6824574e-02 0.0000000e+00 
-1.5900637e-03 5.6799102e-02 0.0000000e+00 
-2.5994832e-03 5.6775095e-02 0.0000000e+00 
4.0246531e-04 5.8201637e-02 0.0000000e+00 
-6.1230687e-04 5.8174441e-02 0.0000000e+00 
-1.6270306e-03 5.8148681e-02 0.0000000e+00 
-2.6419474e-03 5.8124332e-02 0.0000000e+00 
3.7586383e-04 5.9558893e-02 0.0000000e+00 
-6.4422833e-04 5.9531500e-02 0.0000000e+00 
-1.6642727e-03 5.9505476e-02 0.0000000e+00 
-2.6845048e-03 5.9480825e-02 0.0000000e+00 
3.4863708e-04 6.0923168e-02 0.0000000e+00 
-6.7659571e-04 6.0895531e-02 0.0000000e+00 
-1.7017804e-03 6.0869237e-02 0.0000000e+00 
-2.7271500e-03 6.0844260e-02 0.0000000e+00 
3.2080296e-04 6.2294099e-02 0.0000000e+00 
-7.0939546e-04 6.2266279e-02 0.0000000e+00 
-1.7395464e-03 6.2239737e-02 0.0000000e+00 
-2.7698767e-03 6.2214475e-02 0.0000000e+00 
2.9237387e-04 6.3671581e-02 0.0000000e+00 
-7.4261729e-04 6.3643531e-02 0.0000000e+00 
-1.7775606e-03 6.3616733e-02 0.0000000e+00 
-2.8126804e-03 6.3591162e-02 0.0000000e+00 
2.6336772e-04 6.5055258e-02 0.0000000e+00 
-7.7624767e-04 6.5027039e-02 0.0000000e+00 
-1.8158159e-03 6.5000009e-02 0.0000000e+00 
-2.8555551e-03 6.4974171e-02 0.0000000e+00 
2.3379673e-04 6.6445039e-02 0.0000000e+00 
-8.1027650e-04 6.6416602e-02 0.0000000e+00 
-1.8543021e-03 6.6389331e-02 0.0000000e+00 
-2.8984961e-03 6.6363200e-02 0.0000000e+00 
2.0367870e-04 6.7840569e-02 0.0000000e+00 
-8.4469035e-04 6.7811979e-02 0.0000000e+00 
-1.8930125e-03 6.7784491e-02 0.0000000e+00 
-2.9414974e-03 6.7758110e-02 0.0000000e+00 
1.7302564e-04 6.9241772e-02 0.0000000e+00 
-8.7947934e-04 6.9212976e-02 0.0000000e+00 
-1.9319370e-03 6.9185262e-02 0.0000000e+00 
-2.9845548e-03 6.9158605e-02 0.0000000e+00 
1.4185512e-04 7.0648299e-02 0.0000000e+00 
-9.1463015e-04 7.0619362e-02 0.0000000e+00 
-1.9710690e-03 7.0591447e-02 0.0000000e+00 
-3.0276625e-03 7.0564556e-02 0.0000000e+00 
1.1017892e-04 7.2060082e-02 0.0000000e+00 
-9.5013321e-04 7.2030954e-02 0.0000000e+00 
-2.0103986e-03 7.2002827e-02 0.0000000e+00 
-3.0708161e-03 7.1975676e-02 0.0000000e+00 
7.8015275e-05 7.3476782e-02 0.0000000e+00 
-9.8597576e-04 7.3447525e-02 0.0000000e+00 
-2.0499200e-03 7.3419213e-02 0.0000000e+00 
-3.1140093e-03 7.3391846e-02 0.0000000e+00 
4.5376696e-05 7.4898341e-02 0.0000000e+00 
-1.0221495e-03 7.4868907e-02 0.0000000e+00 
-2.0896230e-03 7.4840392e-02 0.0000000e+00 
-3.1572369e-03 7.4812781e-02 0.0000000e+00 
1.2273043e-05 7.6324458e-02 0.0000000e+00 
-1.0586293e-03 7.6294880e-02 0.0000000e+00 
-2.1294936e-03 7.6266183e-02 0.0000000e+00 
-3.2004991e-03 7.6238352e-02 0.0000000e+00 
-2.1267746e-05 7.7754943e-02 0.0000000e+00 
-1.0954247e-03 7.7725254e-02 0.0000000e+00 
-2.1695400e-03 7.7696396e-02 0.0000000e+00 
-3.2437886e-03 7.7668375e-02 0.0000000e+00 
-5.5239141e-05 7.9189732e-02 0.0000000e+00 
-1.1325145e-03 7.9159878e-02 0.0000000e+00 
-2.2097465e-03 7.9130842e-02 0.0000000e+00 
-3.2871082e-03 7.9102598e-02 0.0000000e+00 
-8.9624181e-05 8.0628499e-02 0.0000000e+00 
-1.1698868e-03 8.0598549e-02 0.0000000e+00 
-2.2501075e-03 8.0569361e-02 0.0000000e+00 
-3.3304528e-03 8.0540943e-02 0.0000000e+00 
-1.2441118e-04 8.2071225e-02 0.0000000e+00 
-1.2075342e-03 8.2041121e-02 0.0000000e+00 
-2.2906147e-03 8.2011769e-02 0.0000000e+00 
-3.3738176e-03 8.1983141e-02 0.0000000e+00 
-1.5958468e-04 8.3517591e-02 0.0000000e+00 
-1.2454444e-03 8.3487403e-02 0.0000000e+00 
-2.3312630e-03 8.3457911e-02 0.0000000e+00 
-3.4171988e-03 8.3429124e-02 0.0000000e+00 
-1.9513421e-04 8.4967587e-02 0.0000000e+00 
-1.2836099e-03 8.4937255e-02 0.0000000e+00 
-2.3720437e-03 8.4907611e-02 0.0000000e+00 
-3.4605926e-03 8.4878629e-02 0.0000000e+00 
-2.3104474e-04 8.6420900e-02 0.0000000e+00 
-1.3220185e-03 8.6390495e-02 0.0000000e+00 
-2.4129520e-03 8.6360724e-02 0.0000000e+00 
-3.5039954e-03 8.6331598e-02 0.0000000e+00 
-2.6730607e-04 8.7877530e-02 0.0000000e+00 
-1.3606633e-03 8.7846992e-02 0.0000000e+00 
-2.4539794e-03 8.7817081e-02 0.0000000e+00 
-3.5474035e-03 8.7787772e-02 0.0000000e+00 
-3.0390369e-04 8.9337172e-02 0.0000000e+00 
-1.3995323e-03 8.9306571e-02 0.0000000e+00 
-2.4951214e-03 8.9276545e-02 0.0000000e+00 
-3.5908136e-03 8.9247105e-02 0.0000000e+00 
-3.4082770e-04 9.0799834e-02 0.0000000e+00 
-1.4386190e-03 9.0769109e-02 0.0000000e+00 
-2.5363700e-03 9.0738955e-02 0.0000000e+00 
-3.6342221e-03 9.0709345e-02 0.0000000e+00 
-3.7806414e-04 9.2265215e-02 0.0000000e+00 
-1.4779118e-03 9.2234439e-02 0.0000000e+00 
-2.5777209e-03 9.2204181e-02 0.0000000e+00 
-3.6776263e-03 9.2174454e-02 0.0000000e+00 
-4.1560346e-04 9.3733336e-02 0.0000000e+00 
-1.5174045e-03 9.3702445e-02 0.0000000e+00 
-2.6191662e-03 9.3672070e-02 0.0000000e+00 
-3.7210226e-03 9.3642186e-02 0.0000000e+00 
-4.5343116e-04 9.5203901e-02 0.0000000e+00 
-1.5570863e-03 9.5172967e-02 0.0000000e+00 
-2.6607028e-03 9.5142501e-02 0.0000000e+00 
-3.7644075e-03 9.5112511e-02 0.0000000e+00 
-4.9153691e-04 9.6676940e-02 0.0000000e+00 
-1.5969525e-03 9.6645903e-02 0.0000000e+00 
-2.7023227e-03 9.6615324e-02 0.0000000e+00 
-3.8077767e-03 9.6585190e-02 0.0000000e+00 
-5.2991577e-04 9.8152199e-02 0.0000000e+00 
-1.6369790e-03 9.8121096e-02 0.0000000e+00 
-2.7440129e-03 9.8090424e-02 0.0000000e+00 
-3.8511337e-03 9.8060174e-02 0.0000000e+00 
-5.6854205e-04 9.9629558e-02 0.0000000e+00 
-1.6771806e-03 9.9598420e-02 0.0000000e+00 
-2.7857867e-03 9.9567678e-02 0.0000000e+00 
-3.8944719e-03 9.9537340e-02 0.0000000e+00 
-6.0741251e-04 1.0110902e-01 0.0000000e+00 
-1.7175381e-03 1.0107779e-01 0.0000000e+00 
-2.8276290e-03 1.0104695e-01 0.0000000e+00 
-3.9377962e-03 1.0101649e-01 0.0000000e+00 
-6.4651416e-04 1.0259032e-01 0.0000000e+00 
-1.7580420e-03 1.0255907e-01 0.0000000e+00 
-2.8695373e-03 1.0252816e-01 0.0000000e+00 
-3.9811045e-03 1.0249762e-01 0.0000000e+00 
-6.8583783e-04 1.0407350e-01 0.0000000e+00 
-1.7986882e-03 1.0404216e-01 0.0000000e+00 
-2.9115054e-03 1.0401118e-01 0.0000000e+00 
-4.0243932e-03 1.0398052e-01 0.0000000e+00 
-7.2537203e-04 1.0555831e-01 0.0000000e+00 
-1.8394671e-03 1.0552695e-01 0.0000000e+00 
-2.9535310e-03 1.0549590e-01 0.0000000e+00 
-4.0676612e-03 1.0546518e-01 0.0000000e+00 
-7.6510914e-04 1.0704479e-01 0.0000000e+00 
-1.8803744e-03 1.0701336e-01 0.0000000e+00 
-2.9956078e-03 1.0698223e-01 0.0000000e+00 
-4.1109063e-03 1.0695140e-01 0.0000000e+00 
-8.0503795e-04 1.0853270e-01 0.0000000e+00 
-1.9214008e-03 1.0850125e-01 0.0000000e+00 
-3.0377339e-03 1.0847008e-01 0.0000000e+00 
-4.1541277e-03 1.0843919e-01 0.0000000e+00 
-8.4515128e-04 1.1002209e-01 0.0000000e+00 
-1.9625424e-03 1.0999057e-01 0.0000000e+00 
-3.0799031e-03 1.0995933e-01 0.0000000e+00 
-4.1973235e-03 1.0992834e-01 0.0000000e+00 
-8.8543824e-04 1.1151272e-01 0.0000000e+00 
-2.0037902e-03 1.1148120e-01 0.0000000e+00 
-3.1221139e-03 1.1144991e-01 0.0000000e+00 
-4.2404930e-03 1.1141887e-01 0.0000000e+00 
-9.2589215e-04 1.1300465e-01 0.0000000e+00 
-2.0451408e-03 1.1297307e-01 0.0000000e+00 
-3.1643606e-03 1.1294172e-01 0.0000000e+00 
-4.2836349e-03 1.1291059e-01 0.0000000e+00 
-9.6650246e-04 1.1449765e-01 0.0000000e+00 
-2.0865855e-03 1.1446607e-01 0.0000000e+00 
-3.2066419e-03 1.1443469e-01 0.0000000e+00 
-4.3267486e-03 1.1440352e-01 0.0000000e+00 
-1.0072631e-03 1.1599180e-01 0.0000000e+00 
-2.1281213e-03 1.1596015e-01 0.0000000e+00 
-3.2489524e-03 1.1592872e-01 0.0000000e+00 
-4.3698333e-03 1.1589747e-01 0.0000000e+00 
-1.0481626e-03 1.1748685e-01 0.0000000e+00 
-2.1697403e-03 1.1745521e-01 0.0000000e+00 
-3.2912920e-03 1.1742375e-01 0.0000000e+00 
-4.4128873e-03 1.1739247e-01 0.0000000e+00 
-1.0891945e-03 1.1898290e-01 0.0000000e+00 
-2.2114410e-03 1.1895120e-01 0.0000000e+00 
-3.3336551e-03 1.1891969e-01 0.0000000e+00 
-4.4559094e-03 1.1888833e-01 0.0000000e+00 
-1.1303571e-03 1.2047974e-01 0.0000000e+00 
-2.2532019e-03 1.2044803e-01 0.0000000e+00 
-3.3760311e-03 1.2041647e-01 0.0000000e+00 
-4.4989052e-03 1.2038507e-01 0.0000000e+00 
-1.1716275e-03 1.2197732e-01 0.0000000e+00 
-2.2950416e-03 1.2194562e-01 0.0000000e+00 
-3.4184370e-03 1.2191405e-01 0.0000000e+00 
-4.5418694e-03 1.2188263e-01 0.0000000e+00 