# vtk DataFile Version 4.0
vtk output
ASCII
DATASET UNSTRUCTURED_GRID
POINTS 604 float
5.5000000e+00 5.9700000e+00 0.0000000e+00 
5.5000000e+00 5.9900000e+00 0.0000000e+00 
5.5266667e+00 5.9700000e+00 0.0000000e+00 
5.5266667e+00 5.9900000e+00 0.0000000e+00 
5.5000000e+00 6.0100000e+00 0.0000000e+00 
5.5266667e+00 6.0100000e+00 0.0000000e+00 
5.5533333e+00 5.9700000e+00 0.0000000e+00 
5.5533333e+00 5.9900000e+00 0.0000000e+00 
5.5000000e+00 6.0300000e+00 0.0000000e+00 
5.5266667e+00 6.0300000e+00 0.0000000e+00 
5.5533333e+00 6.0100000e+00 0.0000000e+00 
5.5800000e+00 5.9700000e+00 0.0000000e+00 
5.5533333e+00 6.0300000e+00 0.0000000e+00 
5.5800000e+00 5.9900000e+00 0.0000000e+00 
5.5800000e+00 6.0100000e+00 0.0000000e+00 
5.5800000e+00 6.0300000e+00 0.0000000e+00 
5.6066667e+00 5.9700000e+00 0.0000000e+00 
5.6066667e+00 5.9900000e+00 0.0000000e+00 
5.6066667e+00 6.0100000e+00 0.0000000e+00 
5.6066667e+00 6.0300000e+00 0.0000000e+00 
5.6333333e+00 5.9700000e+00 0.0000000e+00 
5.6333333e+00 5.9900000e+00 0.0000000e+00 
5.6333333e+00 6.0100000e+00 0.0000000e+00 
5.6333333e+00 6.0300000e+00 0.0000000e+00 
5.6600000e+00 5.9700000e+00 0.0000000e+00 
5.6600000e+00 5.9900000e+00 0.0000000e+00 
5.6600000e+00 6.0100000e+00 0.0000000e+00 
5.6600000e+00 6.0300000e+00 0.0000000e+00 
5.6866667e+00 5.9700000e+00 0.0000000e+00 
5.6866667e+00 5.9900000e+00 0.0000000e+00 
5.6866667e+00 6.0100000e+00 0.0000000e+00 
5.6866667e+00 6.0300000e+00 0.0000000e+00 
5.7133333e+00 5.9700000e+00 0.0000000e+00 
5.7133333e+00 5.9900000e+00 0.0000000e+00 
5.7133333e+00 6.0100000e+00 0.0000000e+00 
5.7133333e+00 6.0300000e+00 0.0000000e+00 
5.7400000e+00 5.9700000e+00 0.0000000e+00 
5.7400000e+00 5.9900000e+00 0.0000000e+00 
5.7400000e+00 6.0100000e+00 0.0000000e+00 
5.7400000e+00 6.0300000e+00 0.0000000e+00 
5.7666667e+00 5.9700000e+00 0.0000000e+00 
5.7666667e+00 5.9900000e+00 0.0000000e+00 
5.7666667e+00 6.0100000e+00 0.0000000e+00 
5.7666667e+00 6.0300000e+00 0.0000000e+00 
5.7933333e+00 5.9700000e+00 0.0000000e+00 
5.7933333e+00 5.9900000e+00 0.0000000e+00 
5.7933333e+00 6.0100000e+00 0.0000000e+00 
5.7933333e+00 6.0300000e+00 0.0000000e+00 
5.8200000e+00 5.9700000e+00 0.0000000e+00 
5.8200000e+00 5.9900000e+00 0.0000000e+00 
5.8200000e+00 6.0100000e+00 0.0000000e+00 
5.8200000e+00 6.0300000e+00 0.0000000e+00 
5.8466667e+00 5.9700000e+00 0.0000000e+00 
5.8466667e+00 5.9900000e+00 0.0000000e+00 
5.8466667e+00 6.0100000e+00 0.0000000e+00 
5.8466667e+00 6.0300000e+00 0.0000000e+00 
5.8733333e+00 5.9700000e+00 0.0000000e+00 
5.8733333e+00 5.9900000e+00 0.0000000e+00 
5.8733333e+00 6.0100000e+00 0.0000000e+00 
5.8733333e+00 6.0300000e+00 0.0000000e+00 
5.9000000e+00 5.9700000e+00 0.0000000e+00 
5.9000000e+00 5.9900000e+00 0.0000000e+00 
5.9000000e+00 6.0100000e+00 0.0000000e+00 
5.9000000e+00 6.0300000e+00 0.0000000e+00 
5.9266667e+00 5.9700000e+00 0.0000000e+00 
5.9266667e+00 5.9900000e+00 0.0000000e+00 
5.9266667e+00 6.0100000e+00 0.0000000e+00 
5.9266667e+00 6.0300000e+00 0.0000000e+00 
5.9533333e+00 5.9700000e+00 0.0000000e+00 
5.9533333e+00 5.9900000e+00 0.0000000e+00 
5.9533333e+00 6.0100000e+00 0.0000000e+00 
5.9533333e+00 6.0300000e+00 0.0000000e+00 
5.9800000e+00 5.9700000e+00 0.0000000e+00 
5.9800000e+00 5.9900000e+00 0.0000000e+00 
5.9800000e+00 6.0100000e+00 0.0000000e+00 
5.9800000e+00 6.0300000e+00 0.0000000e+00 
6.0066667e+00 5.9700000e+00 0.0000000e+00 
6.0066667e+00 5.9900000e+00 0.0000000e+00 
6.0066667e+00 6.0100000e+00 0.0000000e+00 
6.0066667e+00 6.0300000e+00 0.0000000e+00 
6.0333333e+00 5.9700000e+00 0.0000000e+00 
6.0333333e+00 5.9900000e+00 0.0000000e+00 
6.0333333e+00 6.0100000e+00 0.0000000e+00 
6.0333333e+00 6.0300000e+00 0.0000000e+00 
6.0600000e+00 5.9700000e+00 0.0000000e+00 
6.0600000e+00 5.9900000e+00 0.0000000e+00 
6.0600000e+00 6.0100000e+00 0.0000000e+00 
6.0600000e+00 6.0300000e+00 0.0000000e+00 
6.0866667e+00 5.9700000e+00 0.0000000e+00 
6.0866667e+00 5.9900000e+00 0.0000000e+00 
6.0866667e+00 6.0100000e+00 0.0000000e+00 
6.0866667e+00 6.0300000e+00 0.0000000e+00 
6.1133333e+00 5.9700000e+00 0.0000000e+00 
6.1133333e+00 5.9900000e+00 0.0000000e+00 
6.1133333e+00 6.0100000e+00 0.0000000e+00 
6.1133333e+00 6.0300000e+00 0.0000000e+00 
6.1400000e+00 5.9700000e+00 0.0000000e+00 
6.1400000e+00 5.9900000e+00 0.0000000e+00 
6.1400000e+00 6.0100000e+00 0.0000000e+00 
6.1400000e+00 6.0300000e+00 0.0000000e+00 
6.1666667e+00 5.9700000e+00 0.0000000e+00 
6.1666667e+00 5.9900000e+00 0.0000000e+00 
6.1666667e+00 6.0100000e+00 0.0000000e+00 
6.1666667e+00 6.0300000e+00 0.0000000e+00 
6.1933333e+00 5.9700000e+00 0.0000000e+00 
6.1933333e+00 5.9900000e+00 0.0000000e+00 
6.1933333e+00 6.0100000e+00 0.0000000e+00 
6.1933333e+00 6.0300000e+00 0.0000000e+00 
6.2200000e+00 5.9700000e+00 0.0000000e+00 
6.2200000e+00 5.9900000e+00 0.0000000e+00 
6.2200000e+00 6.0100000e+00 0.0000000e+00 
6.2200000e+00 6.0300000e+00 0.0000000e+00 
6.2466667e+00 5.9700000e+00 0.0000000e+00 
6.2466667e+00 5.9900000e+00 0.0000000e+00 
6.2466667e+00 6.0100000e+00 0.0000000e+00 
6.2466667e+00 6.0300000e+00 0.0000000e+00 
6.2733333e+00 5.9700000e+00 0.0000000e+00 
6.2733333e+00 5.9900000e+00 0.0000000e+00 
6.2733333e+00 6.0100000e+00 0.0000000e+00 
6.2733333e+00 6.0300000e+00 0.0000000e+00 
6.3000000e+00 5.9700000e+00 0.0000000e+00 
6.3000000e+00 5.9900000e+00 0.0000000e+00 
6.3000000e+00 6.0100000e+00 0.0000000e+00 
6.3000000e+00 6.0300000e+00 0.0000000e+00 
6.3266667e+00 5.9700000e+00 0.0000000e+00 
6.3266667e+00 5.9900000e+00 0.0000000e+00 
6.3266667e+00 6.0100000e+00 0.0000000e+00 
6.3266667e+00 6.0300000e+00 0.0000000e+00 
6.3533333e+00 5.9700000e+00 0.0000000e+00 
6.3533333e+00 5.9900000e+00 0.0000000e+00 
6.3533333e+00 6.0100000e+00 0.0000000e+00 
6.3533333e+00 6.0300000e+00 0.0000000e+00 
6.3800000e+00 5.9700000e+00 0.0000000e+00 
6.3800000e+00 5.9900000e+00 0.0000000e+00 
6.3800000e+00 6.0100000e+00 0.0000000e+00 
6.3800000e+00 6.0300000e+00 0.0000000e+00 
6.4066667e+00 5.9700000e+00 0.0000000e+00 
6.4066667e+00 5.9900000e+00 0.0000000e+00 
6.4066667e+00 6.0100000e+00 0.0000000e+00 
6.4066667e+00 6.0300000e+00 0.0000000e+00 
6.4333333e+00 5.9700000e+00 0.0000000e+00 
6.4333333e+00 5.9900000e+00 0.0000000e+00 
6.4333333e+00 6.0100000e+00 0.0000000e+00 
6.4333333e+00 6.0300000e+00 0.0000000e+00 
6.4600000e+00 5.9700000e+00 0.0000000e+00 
6.4600000e+00 5.9900000e+00 0.0000000e+00 
6.4600000e+00 6.0100000e+00 0.0000000e+00 
6.4600000e+00 6.0300000e+00 0.0000000e+00 
6.4866667e+00 5.9700000e+00 0.0000000e+00 
6.4866667e+00 5.9900000e+00 0.0000000e+00 
6.4866667e+00 6.0100000e+00 0.0000000e+00 
6.4866667e+00 6.0300000e+00 0.0000000e+00 
6.5133333e+00 5.9700000e+00 0.0000000e+00 
6.5133333e+00 5.9900000e+00 0.0000000e+00 
6.5133333e+00 6.0100000e+00 0.0000000e+00 
6.5133333e+00 6.0300000e+00 0.0000000e+00 
6.5400000e+00 5.9700000e+00 0.0000000e+00 
6.5400000e+00 5.9900000e+00 0.0000000e+00 
6.5400000e+00 6.0100000e+00 0.0000000e+00 
6.5400000e+00 6.0300000e+00 0.0000000e+00 
6.5666667e+00 5.9700000e+00 0.0000000e+00 
6.5666667e+00 5.9900000e+00 0.0000000e+00 
6.5666667e+00 6.0100000e+00 0.0000000e+00 
6.5666667e+00 6.0300000e+00 0.0000000e+00 
6.5933333e+00 5.9700000e+00 0.0000000e+00 
6.5933333e+00 5.9900000e+00 0.0000000e+00 
6.5933333e+00 6.0100000e+00 0.0000000e+00 
6.5933333e+00 6.0300000e+00 0.0000000e+00 
6.6200000e+00 5.9700000e+00 0.0000000e+00 
6.6200000e+00 5.9900000e+00 0.0000000e+00 
6.6200000e+00 6.0100000e+00 0.0000000e+00 
6.6200000e+00 6.0300000e+00 0.0000000e+00 
6.6466667e+00 5.9700000e+00 0.0000000e+00 
6.6466667e+00 5.9900000e+00 0.0000000e+00 
6.6466667e+00 6.0100000e+00 0.0000000e+00 
6.6466667e+00 6.0300000e+00 0.0000000e+00 
6.6733333e+00 5.9700000e+00 0.0000000e+00 
6.6733333e+00 5.9900000e+00 0.0000000e+00 
6.6733333e+00 6.0100000e+00 0.0000000e+00 
6.6733333e+00 6.0300000e+00 0.0000000e+00 
6.7000000e+00 5.9700000e+00 0.0000000e+00 
6.7000000e+00 5.9900000e+00 0.0000000e+00 
6.7000000e+00 6.0100000e+00 0.0000000e+00 
6.7000000e+00 6.0300000e+00 0.0000000e+00 
6.7266667e+00 5.9700000e+00 0.0000000e+00 
6.7266667e+00 5.9900000e+00 0.0000000e+00 
6.7266667e+00 6.0100000e+00 0.0000000e+00 
6.7266667e+00 6.0300000e+00 0.0000000e+00 
6.7533333e+00 5.9700000e+00 0.0000000e+00 
6.7533333e+00 5.9900000e+00 0.0000000e+00 
6.7533333e+00 6.0100000e+00 0.0000000e+00 
6.7533333e+00 6.0300000e+00 0.0000000e+00 
6.7800000e+00 5.9700000e+00 0.0000000e+00 
6.7800000e+00 5.9900000e+00 0.0000000e+00 
6.7800000e+00 6.0100000e+00 0.0000000e+00 
6.7800000e+00 6.0300000e+00 0.0000000e+00 
6.8066667e+00 5.9700000e+00 0.0000000e+00 
6.8066667e+00 5.9900000e+00 0.0000000e+00 
6.8066667e+00 6.0100000e+00 0.0000000e+00 
6.8066667e+00 6.0300000e+00 0.0000000e+00 
6.8333333e+00 5.9700000e+00 0.0000000e+00 
6.8333333e+00 5.9900000e+00 0.0000000e+00 
6.8333333e+00 6.0100000e+00 0.0000000e+00 
6.8333333e+00 6.0300000e+00 0.0000000e+00 
6.8600000e+00 5.9700000e+00 0.0000000e+00 
6.8600000e+00 5.9900000e+00 0.0000000e+00 
6.8600000e+00 6.0100000e+00 0.0000000e+00 
6.8600000e+00 6.0300000e+00 0.0000000e+00 
6.8866667e+00 5.9700000e+00 0.0000000e+00 
6.8866667e+00 5.9900000e+00 0.0000000e+00 
6.8866667e+00 6.0100000e+00 0.0000000e+00 
6.8866667e+00 6.0300000e+00 0.0000000e+00 
6.9133333e+00 5.9700000e+00 0.0000000e+00 
6.9133333e+00 5.9900000e+00 0.0000000e+00 
6.9133333e+00 6.0100000e+00 0.0000000e+00 
6.9133333e+00 6.0300000e+00 0.0000000e+00 
6.9400000e+00 5.9700000e+00 0.0000000e+00 
6.9400000e+00 5.9900000e+00 0.0000000e+00 
6.9400000e+00 6.0100000e+00 0.0000000e+00 
6.9400000e+00 6.0300000e+00 0.0000000e+00 
6.9666667e+00 5.9700000e+00 0.0000000e+00 
6.9666667e+00 5.9900000e+00 0.0000000e+00 
6.9666667e+00 6.0100000e+00 0.0000000e+00 
6.9666667e+00 6.0300000e+00 0.0000000e+00 
6.9933333e+00 5.9700000e+00 0.0000000e+00 
6.9933333e+00 5.9900000e+00 0.0000000e+00 
6.9933333e+00 6.0100000e+00 0.0000000e+00 
6.9933333e+00 6.0300000e+00 0.0000000e+00 
7.0200000e+00 5.9700000e+00 0.0000000e+00 
7.0200000e+00 5.9900000e+00 0.0000000e+00 
[...]
POINT_DATA 604
FIELD FieldData 2
DISPLACEMENT 3 604  float
0.0000000e+00 0.0000000e+00 0.0000000e+00 
0.0000000e+00 0.0000000e+00 0.0000000e+00 
8.9593903e-06 5.4870294e-06 0.0000000e+00 
2.8118502e-06 3.6157053e-06 0.0000000e+00 
0.0000000e+00 0.0000000e+00 0.0000000e+00 
-2.8800102e-06 3.6210171e-06 0.0000000e+00 
1.7981415e-05 1.7551915e-05 0.0000000e+00 
5.9351909e-06 1.6003689e-05 0.0000000e+00 
0.0000000e+00 0.0000000e+00 0.0000000e+00 
-9.0261014e-06 5.5111372e-06 0.0000000e+00 
-6.0724297e-06 1.5997670e-05 0.0000000e+00 
2.6797393e-05 3.7757397e-05 0.0000000e+00 
-1.8119910e-05 1.7523748e-05 0.0000000e+00 
8.8261418e-06 3.6227892e-05 0.0000000e+00 
-9.0423689e-06 3.6224899e-05 0.0000000e+00 
-2.7016644e-05 3.7760343e-05 0.0000000e+00 
3.5380410e-05 6.5757482e-05 0.0000000e+00 
1.1659064e-05 6.4243429e-05 0.0000000e+00 
-1.1968706e-05 6.4227647e-05 0.0000000e+00 
-3.5693569e-05 6.5698882e-05 0.0000000e+00 
4.3737476e-05 1.0128475e-04 0.0000000e+00 
1.4407401e-05 9.9821282e-05 0.0000000e+00 
-1.4829175e-05 9.9806133e-05 0.0000000e+00 
-4.4162137e-05 1.0124838e-04 0.0000000e+00 
5.1869820e-05 1.4424323e-04 0.0000000e+00 
1.7072278e-05 1.4278990e-04 0.0000000e+00 
-1.7629537e-05 1.4275559e-04 0.0000000e+00 
-5.2424282e-05 1.4413673e-04 0.0000000e+00 
5.9773120e-05 1.9436640e-04 0.0000000e+00 
1.9660861e-05 1.9294057e-04 0.0000000e+00 
-2.0365907e-05 1.9289644e-04 0.0000000e+00 
-6.0489615e-05 1.9423135e-04 0.0000000e+00 
6.7456307e-05 2.5146863e-04 0.0000000e+00 
2.2158346e-05 2.5008601e-04 0.0000000e+00 
-2.3052961e-05 2.5004160e-04 0.0000000e+00 
-6.8358840e-05 2.5134360e-04 0.0000000e+00 
7.4918051e-05 3.1543808e-04 0.0000000e+00 
2.4571966e-05 3.1406028e-04 0.0000000e+00 
-2.5687156e-05 3.1399657e-04 0.0000000e+00 
-7.6038287e-05 3.1523623e-04 0.0000000e+00 
8.2157886e-05 3.8599934e-04 0.0000000e+00 
2.6901525e-05 3.8466316e-04 0.0000000e+00 
-2.8270044e-05 3.8459296e-04 0.0000000e+00 
-8.3533571e-05 3.8579918e-04 0.0000000e+00 
8.9180183e-05 4.6306441e-04 0.0000000e+00 
2.9145681e-05 4.6173078e-04 0.0000000e+00 
-3.0804531e-05 4.6164095e-04 0.0000000e+00 
-9.0845106e-05 4.6278434e-04 0.0000000e+00 
9.5983931e-05 5.4636609e-04 0.0000000e+00 
3.1304893e-05 5.4507112e-04 0.0000000e+00 
-3.3291927e-05 5.4497303e-04 0.0000000e+00 
-9.7978951e-05 5.4608175e-04 0.0000000e+00 
1.0257307e-04 6.3581745e-04 0.0000000e+00 
3.3378420e-05 6.3452356e-04 0.0000000e+00 
-3.5734466e-05 6.3440481e-04 0.0000000e+00 
-1.0493593e-04 6.3545093e-04 0.0000000e+00 
1.0894696e-04 7.3115909e-04 0.0000000e+00 
3.5366984e-05 7.2990107e-04 0.0000000e+00 
-3.8133203e-05 7.2977255e-04 0.0000000e+00 
-1.1172172e-04 7.3078294e-04 0.0000000e+00 
1.1510957e-04 8.3230485e-04 0.0000000e+00 
3.7270101e-05 8.3104674e-04 0.0000000e+00 
-4.0490092e-05 8.3089680e-04 0.0000000e+00 
-1.1833706e-04 8.3184511e-04 0.0000000e+00 
1.2106079e-04 9.3900312e-04 0.0000000e+00 
3.9088647e-05 9.3777846e-04 0.0000000e+00 
-4.2806038e-05 9.3761760e-04 0.0000000e+00 
-1.2478710e-04 9.3852948e-04 0.0000000e+00 
1.2680439e-04 1.0511689e-03 0.0000000e+00 
4.0822433e-05 1.0499431e-03 0.0000000e+00 
-4.5082685e-05 1.0497603e-03 0.0000000e+00 
-1.3107275e-04 1.0506108e-03 0.0000000e+00 
1.3234089e-04 1.1685577e-03 0.0000000e+00 
4.2472436e-05 1.1673634e-03 0.0000000e+00 
-4.7320836e-05 1.1671688e-03 0.0000000e+00 
-1.3719850e-04 1.1679826e-03 0.0000000e+00 
1.3767370e-04 1.2910862e-03 0.0000000e+00 
4.4038747e-05 1.2898900e-03 0.0000000e+00 
-4.9521838e-05 1.2896732e-03 0.0000000e+00 
-1.4316560e-04 1.2904266e-03 0.0000000e+00 
1.4280458e-04 1.4185166e-03 0.0000000e+00 
4.5522135e-05 1.4173500e-03 0.0000000e+00 
-5.1686765e-05 1.4171217e-03 0.0000000e+00 
-1.4897729e-04 1.4178381e-03 0.0000000e+00 
1.4773706e-04 1.5507683e-03 0.0000000e+00 
4.6922636e-05 1.5496004e-03 0.0000000e+00 
-5.3816574e-05 1.5493468e-03 0.0000000e+00 
-1.5463478e-04 1.5500045e-03 0.0000000e+00 
1.5246984e-04 1.6876266e-03 0.0000000e+00 
4.8247711e-05 1.6864714e-03 0.0000000e+00 
-5.5907652e-05 1.6862004e-03 0.0000000e+00 
-1.6014434e-04 1.6868106e-03 0.0000000e+00 
1.5701267e-04 1.8289395e-03 0.0000000e+00 
4.9487298e-05 1.8278104e-03 0.0000000e+00 
-5.7969863e-05 1.8275298e-03 0.0000000e+00 
-1.6550566e-04 1.8281037e-03 0.0000000e+00 
1.6136458e-04 1.9746155e-03 0.0000000e+00 
5.0648724e-05 1.9734825e-03 0.0000000e+00 
-5.9999442e-05 1.9731788e-03 0.0000000e+00 
-1.7072461e-04 1.9736952e-03 0.0000000e+00 
1.6552919e-04 2.1244321e-03 0.0000000e+00 
5.1732667e-05 2.1233259e-03 0.0000000e+00 
-6.1997132e-05 2.1230098e-03 0.0000000e+00 
-1.7580267e-04 2.1234917e-03 0.0000000e+00 
1.6950885e-04 2.2783198e-03 0.0000000e+00 
5.2739905e-05 2.2772087e-03 0.0000000e+00 
-6.3963607e-05 2.2768704e-03 0.0000000e+00 
-1.8074213e-04 2.2772955e-03 0.0000000e+00 
1.7330723e-04 2.4360600e-03 0.0000000e+00 
5.3671426e-05 2.4349755e-03 0.0000000e+00 
-6.5899697e-05 2.4346252e-03 0.0000000e+00 
-1.8554435e-04 2.4350173e-03 0.0000000e+00 
1.7692581e-04 2.5975887e-03 0.0000000e+00 
5.4528461e-05 2.5964985e-03 0.0000000e+00 
-6.7805563e-05 2.5961263e-03 0.0000000e+00 
-1.9021246e-04 2.5964625e-03 0.0000000e+00 
1.8036878e-04 2.7626901e-03 0.0000000e+00 
5.5312029e-05 2.7616265e-03 0.0000000e+00 
-6.9682022e-05 2.7612429e-03 0.0000000e+00 
-1.9474733e-04 2.7615477e-03 0.0000000e+00 
1.8363736e-04 2.9313061e-03 0.0000000e+00 
5.6023507e-05 2.9302361e-03 0.0000000e+00 
-7.1529070e-05 2.9298310e-03 0.0000000e+00 
-1.9915232e-04 2.9300810e-03 0.0000000e+00 
1.8673613e-04 3.1032235e-03 0.0000000e+00 
5.6663921e-05 3.1021802e-03 0.0000000e+00 
-7.3347528e-05 3.1017645e-03 0.0000000e+00 
-2.0342793e-04 3.1019849e-03 0.0000000e+00 
1.8966607e-04 3.2783903e-03 0.0000000e+00 
5.7234781e-05 3.2773400e-03 0.0000000e+00 
-7.5137245e-05 3.2769033e-03 0.0000000e+00 
-2.0757771e-04 3.2770698e-03 0.0000000e+00 
1.9243211e-04 3.4565955e-03 0.0000000e+00 
5.7737137e-05 3.4555723e-03 0.0000000e+00 
-7.6899029e-05 3.4551258e-03 0.0000000e+00 
-2.1160186e-04 3.4552648e-03 0.0000000e+00 
1.9503498e-04 3.6377936e-03 0.0000000e+00 
5.8172575e-05 3.6367629e-03 0.0000000e+00 
-7.8632632e-05 3.6362960e-03 0.0000000e+00 
-2.1550413e-04 3.6363824e-03 0.0000000e+00 
1.9748053e-04 3.8217757e-03 0.0000000e+00 
5.8541838e-05 3.8207721e-03 0.0000000e+00 
-8.0339240e-05 3.8202974e-03 0.0000000e+00 
-2.1928379e-04 3.8203580e-03 0.0000000e+00 
1.9976989e-04 4.0085033e-03 0.0000000e+00 
5.8846275e-05 4.0074934e-03 0.0000000e+00 
-8.2018367e-05 4.0069951e-03 0.0000000e+00 
-2.2294426e-04 4.0070054e-03 0.0000000e+00 
2.0190422e-04 4.1977898e-03 0.0000000e+00 
5.9094645e-05 4.1967890e-03 0.0000000e+00 
-8.3665202e-05 4.1962772e-03 0.0000000e+00 
-2.2648937e-04 4.1962500e-03 0.0000000e+00 
2.0389445e-04 4.3895151e-03 0.0000000e+00 
5.9275576e-05 4.3885409e-03 0.0000000e+00 
-8.5290879e-05 4.3880253e-03 0.0000000e+00 
-2.2991772e-04 4.3879758e-03 0.0000000e+00 
2.0573763e-04 4.5836344e-03 0.0000000e+00 
5.9398126e-05 4.5826508e-03 0.0000000e+00 
-8.6889824e-05 4.5821153e-03 0.0000000e+00 
-2.3323693e-04 4.5820164e-03 0.0000000e+00 
2.0744002e-04 4.7799429e-03 0.0000000e+00 
5.9462960e-05 4.7789882e-03 0.0000000e+00 
-8.8462899e-05 4.7784468e-03 0.0000000e+00 
-2.3644603e-04 4.7783290e-03 0.0000000e+00 
2.0900264e-04 4.9784234e-03 0.0000000e+00 
5.9471552e-05 4.9774585e-03 0.0000000e+00 
-9.0009939e-05 4.9768989e-03 0.0000000e+00 
-2.3954835e-04 4.9767325e-03 0.0000000e+00 
2.1043107e-04 5.1788727e-03 0.0000000e+00 
5.9424976e-05 5.1779376e-03 0.0000000e+00 
-9.1531790e-05 5.1773733e-03 0.0000000e+00 
-2.4254350e-04 5.1771905e-03 0.0000000e+00 
2.1172573e-04 5.3812808e-03 0.0000000e+00 
5.9325020e-05 5.3803350e-03 0.0000000e+00 
-9.3027897e-05 5.3797532e-03 0.0000000e+00 
-2.4543537e-04 5.3795230e-03 0.0000000e+00 
2.1289220e-04 5.5854457e-03 0.0000000e+00 
5.9172806e-05 5.5845305e-03 0.0000000e+00 
-9.4499077e-05 5.5839452e-03 0.0000000e+00 
-2.4822355e-04 5.5837011e-03 0.0000000e+00 
2.1393096e-04 5.7913646e-03 0.0000000e+00 
5.8970093e-05 5.7904382e-03 0.0000000e+00 
-9.5944768e-05 5.7898363e-03 0.0000000e+00 
-2.5091183e-04 5.7895459e-03 0.0000000e+00 
2.1484754e-04 5.9988367e-03 0.0000000e+00 
5.8718026e-05 5.9979417e-03 0.0000000e+00 
-9.7365778e-05 5.9973375e-03 0.0000000e+00 
-2.5349984e-04 5.9970356e-03 0.0000000e+00 
2.1564246e-04 6.2078663e-03 0.0000000e+00 
5.8418333e-05 6.2069598e-03 0.0000000e+00 
-9.8761536e-05 6.2063396e-03 0.0000000e+00 
-2.5599126e-04 6.2059928e-03 0.0000000e+00 
2.1632110e-04 6.4182539e-03 0.0000000e+00 
5.8072198e-05 6.4173796e-03 0.0000000e+00 
-1.0013282e-04 6.4167585e-03 0.0000000e+00 
-2.5838583e-04 6.4164025e-03 0.0000000e+00 
2.1688402e-04 6.6300106e-03 0.0000000e+00 
5.7681271e-05 6.6291245e-03 0.0000000e+00 
-1.0147909e-04 6.6284882e-03 0.0000000e+00 
-2.6068713e-04 6.6280887e-03 0.0000000e+00 
2.1733731e-04 6.8429385e-03 0.0000000e+00 
5.7246341e-05 6.8420848e-03 0.0000000e+00 
-1.0280159e-04 6.8414501e-03 0.0000000e+00 
-2.6289416e-04 6.8410434e-03 0.0000000e+00 
2.1768232e-04 7.0570559e-03 0.0000000e+00 
5.6768625e-05 7.0561921e-03 0.0000000e+00 
-1.0409971e-04 7.0555383e-03 0.0000000e+00 
-2.6500970e-04 7.0550908e-03 0.0000000e+00 
2.1791879e-04 7.2721923e-03 0.0000000e+00 
5.6258842e-05 7.2713386e-03 0.0000000e+00 
-1.0536667e-04 7.2706787e-03 0.0000000e+00 
-2.6703881e-04 7.2702076e-03 0.0000000e+00 
2.1805894e-04 7.4882615e-03 0.0000000e+00 
5.5702131e-05 7.4874395e-03 0.0000000e+00 
-1.0661702e-04 7.4867860e-03 0.0000000e+00 
-2.6897835e-04 7.4863110e-03 0.0000000e+00 
2.1809910e-04 7.7052686e-03 0.0000000e+00 
5.5109235e-05 7.7044336e-03 0.0000000e+00 
-1.0784325e-04 7.7037657e-03 0.0000000e+00 
-2.7083632e-04 7.7032505e-03 0.0000000e+00 
2.1804486e-04 7.9230202e-03 0.0000000e+00 
5.4480942e-05 7.9222195e-03 0.0000000e+00 
-1.0904614e-04 7.9215547e-03 0.0000000e+00 
-2.7261224e-04 7.9210392e-03 0.0000000e+00 
2.1789787e-04 8.1415532e-03 0.0000000e+00 
5.3818300e-05 8.1407387e-03 0.0000000e+00 
-1.1022569e-04 8.1400614e-03 0.0000000e+00 
-2.7430824e-04 8.1395066e-03 0.0000000e+00 
2.1766275e-04 8.3606763e-03 0.0000000e+00 
5.3122502e-05 8.3598970e-03 0.0000000e+00 
-1.1138264e-04 8.3592240e-03 0.0000000e+00 
-2.7592469e-04 8.3586710e-03 0.0000000e+00 
2.1734038e-04 8.5804329e-03 0.0000000e+00 
5.2394962e-05 8.5796395e-03 0.0000000e+00 
-1.1251654e-04 8.5789547e-03 0.0000000e+00 
-2.7746442e-04 8.5783636e-03 0.0000000e+00 
2.1693532e-04 8.8006331e-03 0.0000000e+00 
5.1636897e-05 8.7998754e-03 0.0000000e+00 
-1.1362809e-04 8.7991960e-03 0.0000000e+00 
-2.7892785e-04 8.7986089e-03 0.0000000e+00 
2.1644847e-04 9.0213263e-03 0.0000000e+00 
5.0849658e-05 9.0205542e-03 0.0000000e+00 
-1.1471689e-04 9.0198637e-03 0.0000000e+00 
-2.8031768e-04 9.0192396e-03 0.0000000e+00 
2.1588432e-04 9.2423243e-03 0.0000000e+00 
5.0034442e-05 9.2415884e-03 0.0000000e+00 
-1.1578365e-04 9.2409043e-03 0.0000000e+00 
-2.8163442e-04 9.2402861e-03 0.0000000e+00 
2.1524374e-04 9.4636823e-03 0.0000000e+00 
4.9192564e-05 9.4629317e-03 0.0000000e+00 
-1.1682799e-04 9.4622371e-03 0.0000000e+00 
-2.8288071e-04 9.4615831e-03 0.0000000e+00 
2.1453113e-04 9.6852141e-03 0.0000000e+00 
4.8325215e-05 9.6845000e-03 0.0000000e+00 
-1.1785062e-04 9.6838127e-03 0.0000000e+00 
-2.8405712e-04 9.6831667e-03 0.0000000e+00 
2.1374729e-04 9.9069800e-03 0.0000000e+00 
4.7433635e-05 9.9062511e-03 0.0000000e+00 
-1.1885121e-04 9.9055540e-03 0.0000000e+00 
-2.8516633e-04 9.9048735e-03 0.0000000e+00 
2.1289753e-04 1.0128796e-02 0.0000000e+00 
4.6518495e-05 1.0128104e-02 0.0000000e+00 
-1.1983105e-04 1.0127416e-02 0.0000000e+00 
-2.8620798e-04 1.0126745e-02 0.0000000e+00 
2.1198349e-04 1.0350729e-02 0.0000000e+00 
4.5580578e-05 1.0350024e-02 0.0000000e+00 
-1.2078978e-04 1.0349322e-02 0.0000000e+00 
-2.8718394e-04 1.0348619e-02 0.0000000e+00 
2.1100330e-04 1.0572627e-02 0.0000000e+00 
4.4631890e-05 1.0571932e-02 0.0000000e+00 
-1.2171924e-04 1.0571230e-02 0.0000000e+00 
-2.8810072e-04 1.0570516e-02 0.0000000e+00 
2.0997010e-04 1.0794434e-02 0.0000000e+00 
4.3654695e-05 1.0793774e-02 0.0000000e+00 
-1.2263680e-04 1.0793086e-02 0.0000000e+00 
-2.8895385e-04 1.0792384e-02 0.0000000e+00 
2.0887926e-04 1.1016198e-02 0.0000000e+00 
4.2660871e-05 1.1015522e-02 0.0000000e+00 
-1.2353362e-04 1.1014824e-02 0.0000000e+00 
-2.8975191e-04 1.1014090e-02 0.0000000e+00 
2.0773599e-04 1.1237741e-02 0.0000000e+00 
4.1651014e-05 1.1237102e-02 0.0000000e+00 
-1.2441070e-04 1.1236415e-02 0.0000000e+00 
-2.9049479e-04 1.1235696e-02 0.0000000e+00 
2.0654191e-04 1.1459146e-02 0.0000000e+00 
4.0625816e-05 1.1458489e-02 0.0000000e+00 
-1.2526827e-04 1.1457794e-02 0.0000000e+00 
-2.9118431e-04 1.1457043e-02 0.0000000e+00 
2.0530127e-04 1.1680235e-02 0.0000000e+00 
3.9586248e-05 1.1679616e-02 0.0000000e+00 
-1.2610729e-04 1.1678932e-02 0.0000000e+00 
-2.9182124e-04 1.1678199e-02 0.0000000e+00 
2.0401473e-04 1.1901100e-02 0.0000000e+00 
3.8533472e-05 1.1900462e-02 0.0000000e+00 
-1.2692750e-04 1.1899770e-02 0.0000000e+00 
-2.9240841e-04 1.1899006e-02 0.0000000e+00 
2.0268653e-04 1.2121562e-02 0.0000000e+00 
3.7468461e-05 1.2120964e-02 0.0000000e+00 
-1.2772987e-04 1.2120284e-02 0.0000000e+00 
-2.9294658e-04 1.2119538e-02 0.0000000e+00 
2.0131737e-04 1.2341722e-02 0.0000000e+00 
3.6392327e-05 1.2341104e-02 0.0000000e+00 
-1.2851417e-04 1.2340416e-02 0.0000000e+00 
-2.9343860e-04 1.2339640e-02 0.0000000e+00 
1.9991143e-04 1.2561400e-02 0.0000000e+00 
3.5306007e-05 1.2560821e-02 0.0000000e+00 
-1.2928145e-04 1.2560146e-02 0.0000000e+00 
-2.9388526e-04 1.2559391e-02 0.0000000e+00 
1.9846942e-04 1.2780703e-02 0.0000000e+00 
3.4210576e-05 1.2780104e-02 0.0000000e+00 
-1.3003148e-04 1.2779421e-02 0.0000000e+00 
-2.9428946e-04 1.2778637e-02 0.0000000e+00 
1.9699540e-04 1.2999455e-02 0.0000000e+00 
3.3106968e-05 1.2998895e-02 0.0000000e+00 
-1.3076535e-04 1.2998225e-02 0.0000000e+00 
-2.9465207e-04 1.2997463e-02 0.0000000e+00 
1.9549005e-04 1.3217767e-02 0.0000000e+00 
3.1996161e-05 1.3217185e-02 0.0000000e+00 
-1.3148288e-04 1.3216508e-02 0.0000000e+00 
-2.9497607e-04 1.3215718e-02 0.0000000e+00 
1.9395844e-04 1.3435464e-02 0.0000000e+00 
3.0878477e-05 1.3434921e-02 0.0000000e+00 
-1.3218589e-04 1.3434260e-02 0.0000000e+00 
-2.9526123e-04 1.3433492e-02 0.0000000e+00 
1.9240237e-04 1.3652665e-02 0.0000000e+00 
2.9754338e-05 1.3652103e-02 0.0000000e+00 
-1.3287421e-04 1.3651428e-02 0.0000000e+00 
-2.9550954e-04 1.3650634e-02 0.0000000e+00 
1.9081830e-04 1.3869232e-02 0.0000000e+00 
2.8637366e-05 1.3868678e-02 0.0000000e+00 
-1.3353824e-04 1.3868006e-02 0.0000000e+00 
-2.9572891e-04 1.3867211e-02 0.0000000e+00 
1.8922066e-04 1.4085139e-02 0.0000000e+00 
2.7506144e-05 1.4084622e-02 0.0000000e+00 
-1.3419899e-04 1.4083971e-02 0.0000000e+00 
-2.9591377e-04 1.4083201e-02 0.0000000e+00 
1.8760400e-04 1.4300484e-02 0.0000000e+00 
2.6374056e-05 1.4299942e-02 0.0000000e+00 
-1.3484605e-04 1.4299282e-02 0.0000000e+00 
-2.9607387e-04 1.4298485e-02 0.0000000e+00 
1.8597264e-04 1.4515093e-02 0.0000000e+00 
2.5241476e-05 1.4514590e-02 0.0000000e+00 
-1.3548081e-04 1.4513946e-02 0.0000000e+00 
-2.9620952e-04 1.4513177e-02 0.0000000e+00 
1.8432883e-04 1.4729105e-02 0.0000000e+00 
2.4108533e-05 1.4728576e-02 0.0000000e+00 
-1.3610380e-04 1.4727924e-02 0.0000000e+00 
-2.9632218e-04 1.4727128e-02 0.0000000e+00 
1.8267547e-04 1.4942349e-02 0.0000000e+00 
2.2976052e-05 1.4941860e-02 0.0000000e+00 
-1.3671628e-04 1.4941223e-02 0.0000000e+00 
-2.9641329e-04 1.4940458e-02 0.0000000e+00 
1.8101381e-04 1.5154969e-02 0.0000000e+00 
2.1844649e-05 1.5154454e-02 0.0000000e+00 
-1.3731819e-04 1.5153810e-02 0.0000000e+00 
-2.9648526e-04 1.5153017e-02 0.0000000e+00 
1.7934652e-04 1.5366796e-02 0.0000000e+00 
2.0715189e-05 1.5366321e-02 0.0000000e+00 
-1.3791073e-04 1.5365692e-02 0.0000000e+00 
-2.9653959e-04 1.5364931e-02 0.0000000e+00 
1.7767497e-04 1.5577981e-02 0.0000000e+00 
1.9588162e-05 1.5577477e-02 0.0000000e+00 
-1.3849389e-04 1.5576841e-02 0.0000000e+00 
-2.9657844e-04 1.5576053e-02 0.0000000e+00 
1.7600151e-04 1.5788353e-02 0.0000000e+00 
1.8464424e-05 1.5787889e-02 0.0000000e+00 
-1.3906886e-04 1.5787269e-02 0.0000000e+00 
-2.9660345e-04 1.5786514e-02 0.0000000e+00 
1.7432761e-04 1.5998070e-02 0.0000000e+00 
1.7344358e-05 1.5997576e-02 0.0000000e+00 
-1.3963565e-04 1.5996949e-02 0.0000000e+00 
-2.9661651e-04 1.5996167e-02 0.0000000e+00 
1.7265526e-04 1.6206963e-02 0.0000000e+00 
1.6228843e-05 1.6206509e-02 0.0000000e+00 
-1.4019538e-04 1.6205897e-02 0.0000000e+00 
-2.9661944e-04 1.6205150e-02 0.0000000e+00 
1.7098595e-04 1.6415193e-02 0.0000000e+00 
1.5118101e-05 1.6414709e-02 0.0000000e+00 
-1.4074815e-04 1.6414090e-02 0.0000000e+00 
-2.9661395e-04 1.6413316e-02 0.0000000e+00 
1.6932260e-04 1.6622594e-02 0.0000000e+00 
1.4012329e-05 1.6622148e-02 0.0000000e+00 
-1.4129577e-04 1.6621548e-02 0.0000000e+00 
-2.9660067e-04 1.6620808e-02 0.0000000e+00 
1.6766803e-04 1.6829332e-02 0.0000000e+00 
1.2911114e-05 1.6828859e-02 0.0000000e+00 
-1.4183845e-04 1.6828243e-02 0.0000000e+00 
-2.9657983e-04 1.6827480e-02 0.0000000e+00 
1.6601550e-04 1.7035283e-02 0.0000000e+00 
1.1829217e-05 1.7034813e-02 0.0000000e+00 
-1.4236476e-04 1.7034202e-02 0.0000000e+00 
-2.9656107e-04 1.7033442e-02 0.0000000e+00 
1.6437944e-04 1.7240448e-02 0.0000000e+00 
1.0742068e-05 1.7240013e-02 0.0000000e+00 
-1.4289878e-04 1.7239426e-02 0.0000000e+00 
-2.9653666e-04 1.7238701e-02 0.0000000e+00 
1.6275399e-04 1.7444961e-02 0.0000000e+00 
9.6637405e-06 1.7444495e-02 0.0000000e+00 
-1.4342848e-04 1.7443897e-02 0.0000000e+00 
-2.9651553e-04 1.7443147e-02 0.0000000e+00 
1.6114098e-04 1.7648661e-02 0.0000000e+00 
8.5945986e-06 1.7648233e-02 0.0000000e+00 
-1.4395495e-04 1.7647652e-02 0.0000000e+00 
-2.9649888e-04 1.7646939e-02 0.0000000e+00 
1.5954343e-04 1.7851724e-02 0.0000000e+00 
7.5338323e-06 1.7851263e-02 0.0000000e+00 
-1.4447904e-04 1.7850673e-02 0.0000000e+00 
-2.9648589e-04 1.7849934e-02 0.0000000e+00 
1.5796170e-04 1.8053991e-02 0.0000000e+00 
6.4821873e-06 1.8053567e-02 0.0000000e+00 
-1.4500163e-04 1.8052994e-02 0.0000000e+00 
-2.9647892e-04 1.8052293e-02 0.0000000e+00 
1.5639751e-04 1.8255640e-02 0.0000000e+00 
5.4394555e-06 1.8255182e-02 0.0000000e+00 
-1.4552286e-04 1.8254601e-02 0.0000000e+00 
-2.9647820e-04 1.8253873e-02 0.0000000e+00 
1.5485105e-04 1.8456514e-02 0.0000000e+00 
4.4064033e-06 1.8456094e-02 0.0000000e+00 
-1.4604350e-04 1.8455528e-02 0.0000000e+00 
-2.9648600e-04 1.8454840e-02 0.0000000e+00 
1.5332399e-04 1.8656795e-02 0.0000000e+00 
3.3827263e-06 1.8656340e-02 0.0000000e+00 
-1.4656369e-04 1.8655766e-02 0.0000000e+00 
-2.9650230e-04 1.8655051e-02 0.0000000e+00 
1.5181637e-04 1.8856325e-02 0.0000000e+00 
2.3691495e-06 1.8855906e-02 0.0000000e+00 
-1.4708417e-04 1.8855349e-02 0.0000000e+00 
-2.9652935e-04 1.8854673e-02 0.0000000e+00 
1.5032974e-04 1.9055288e-02 0.0000000e+00 
1.3653114e-06 1.9054835e-02 0.0000000e+00 
-1.4760506e-04 1.9054268e-02 0.0000000e+00 
-2.9656693e-04 1.9053566e-02 0.0000000e+00 
1.4886394e-04 1.9253529e-02 0.0000000e+00 
3.7191808e-07 1.9253112e-02 0.0000000e+00 
-1.4812701e-04 1.9252562e-02 0.0000000e+00 
-2.9661724e-04 1.9251899e-02 0.0000000e+00 
1.4742030e-04 1.9451233e-02 0.0000000e+00 
-6.1149148e-07 1.9450781e-02 0.0000000e+00 
-1.4865017e-04 1.9450221e-02 0.0000000e+00 
-2.9668000e-04 1.9449532e-02 0.0000000e+00 
1.4599991e-04 1.9648246e-02 0.0000000e+00 
-1.5849627e-06 1.9647829e-02 0.0000000e+00 
-1.4917587e-04 1.9647287e-02 0.0000000e+00 
-2.9675598e-04 1.9646637e-02 0.0000000e+00 
1.4460516e-04 1.9844754e-02 0.0000000e+00 
-2.5494600e-06 1.9844305e-02 0.0000000e+00 
-1.4970444e-04 1.9843746e-02 0.0000000e+00 
-2.9684352e-04 1.9843073e-02 0.0000000e+00 
1.4322752e-04 2.0040647e-02 0.0000000e+00 
-3.4905369e-06 2.0040197e-02 0.0000000e+00 
-1.5022332e-04 2.0039642e-02 0.0000000e+00 
-2.9695231e-04 2.0038975e-02 0.0000000e+00 
1.4188007e-04 2.0235941e-02 0.0000000e+00 
-4.4335582e-06 2.0235523e-02 0.0000000e+00 
-1.5075734e-04 2.0234991e-02 0.0000000e+00 
-2.9707236e-04 2.0234361e-02 0.0000000e+00 
1.4055563e-04 2.0430784e-02 0.0000000e+00 
-5.3648496e-06 2.0430330e-02 0.0000000e+00 