# vtk DataFile Version 4.0
vtk output
ASCII
DATASET UNSTRUCTURED_GRID
POINTS 604 float
5.5000000e+00 5.9700000e+00 0.0000000e+00 
5.5000000e+00 5.9900000e+00 0.0000000e+00 
5.5266667e+00 5.9700000e+00 0.0000000e+00 
5.5266667e+00 5.9900000e+00 0.0000000e+00 
5.5000000e+00 6.0100000e+00 0.0000000e+00 
5.5266667e+00 6.0100000e+00 0.0000000e+00 
5.5533333e+00 5.9700000e+00 0.0000000e+00 
5.5533333e+00 5.9900000e+00 0.0000000e+00 
5.5000000e+00 6.0300000e+00 0.0000000e+00 
5.5266667e+00 6.0300000e+00 0.0000000e+00 
5.5533333e+00 6.0100000e+00 0.0000000e+00 
5.5800000e+00 5.9700000e+00 0.0000000e+00 
5.5533333e+00 6.0300000e+00 0.0000000e+00 
5.5800000e+00 5.9900000e+00 0.0000000e+00 
5.5800000e+00 6.0100000e+00 0.0000000e+00 
5.5800000e+00 6.0300000e+00 0.0000000e+00 
5.6066667e+00 5.9700000e+00 0.0000000e+00 
5.6066667e+00 5.9900000e+00 0.0000000e+00 
5.6066667e+00 6.0100000e+00 0.0000000e+00 
5.6066667e+00 6.0300000e+00 0.0000000e+00 
5.6333333e+00 5.9700000e+00 0.0000000e+00 
5.6333333e+00 5.9900000e+00 0.0000000e+00 
5.6333333e+00 6.0100000e+00 0.0000000e+00 
5.6333333e+00 6.0300000e+00 0.0000000e+00 
5.6600000e+00 5.9700000e+00 0.0000000e+00 
5.6600000e+00 5.9900000e+00 0.0000000e+00 
5.6600000e+00 6.0100000e+00 0.0000000e+00 
5.6600000e+00 6.0300000e+00 0.0000000e+00 
5.6866667e+00 5.9700000e+00 0.0000000e+00 
5.6866667e+00 5.9900000e+00 0.0000000e+00 
5.6866667e+00 6.0100000e+00 0.0000000e+00 
5.6866667e+00 6.0300000e+00 0.0000000e+00 
5.7133333e+00 5.9700000e+00 0.0000000e+00 
5.7133333e+00 5.9900000e+00 0.0000000e+00 
5.7133333e+00 6.0100000e+00 0.0000000e+00 
5.7133333e+00 6.0300000e+00 0.0000000e+00 
5.7400000e+00 5.9700000e+00 0.0000000e+00 
5.7400000e+00 5.9900000e+00 0.0000000e+00 
5.7400000e+00 6.0100000e+00 0.0000000e+00 
5.7400000e+00 6.0300000e+00 0.0000000e+00 
5.7666667e+00 5.9700000e+00 0.0000000e+00 
5.7666667e+00 5.9900000e+00 0.0000000e+00 
5.7666667e+00 6.0100000e+00 0.0000000e+00 
5.7666667e+00 6.0300000e+00 0.0000000e+00 
5.7933333e+00 5.9700000e+00 0.0000000e+00 
5.7933333e+00 5.9900000e+00 0.0000000e+00 
5.7933333e+00 6.0100000e+00 0.0000000e+00 
5.7933333e+00 6.0300000e+00 0.0000000e+00 
5.8200000e+00 5.9700000e+00 0.0000000e+00 
5.8200000e+00 5.9900000e+00 0.0000000e+00 
5.8200000e+00 6.0100000e+00 0.0000000e+00 
5.8200000e+00 6.0300000e+00 0.0000000e+00 
5.8466667e+00 5.9700000e+00 0.0000000e+00 
5.8466667e+00 5.9900000e+00 0.0000000e+00 
5.8466667e+00 6.0100000e+00 0.0000000e+00 
5.8466667e+00 6.0300000e+00 0.0000000e+00 
5.8733333e+00 5.9700000e+00 0.0000000e+00 
5.8733333e+00 5.9900000e+00 0.0000000e+00 
5.8733333e+00 6.0100000e+00 0.0000000e+00 
5.8733333e+00 6.0300000e+00 0.0000000e+00 
5.9000000e+00 5.9700000e+00 0.0000000e+00 
5.9000000e+00 5.9900000e+00 0.0000000e+00 
5.9000000e+00 6.0100000e+00 0.0000000e+00 
5.9000000e+00 6.0300000e+00 0.0000000e+00 
5.9266667e+00 5.9700000e+00 0.0000000e+00 
5.9266667e+00 5.9900000e+00 0.0000000e+00 
5.9266667e+00 6.0100000e+00 0.0000000e+00 
5.9266667e+00 6.0300000e+00 0.0000000e+00 
5.9533333e+00 5.9700000e+00 0.0000000e+00 
5.9533333e+00 5.9900000e+00 0.0000000e+00 
5.9533333e+00 6.0100000e+00 0.0000000e+00 
5.9533333e+00 6.0300000e+00 0.0000000e+00 
5.9800000e+00 5.9700000e+00 0.0000000e+00 
5.9800000e+00 5.9900000e+00 0.0000000e+00 
5.9800000e+00 6.0100000e+00 0.0000000e+00 
5.9800000e+00 6.0300000e+00 0.0000000e+00 
6.0066667e+00 5.9700000e+00 0.0000000e+00 
6.0066667e+00 5.9900000e+00 0.0000000e+00 
6.0066667e+00 6.0100000e+00 0.0000000e+00 
6.0066667e+00 6.0300000e+00 0.0000000e+00 
6.0333333e+00 5.9700000e+00 0.0000000e+00 
6.0333333e+00 5.9900000e+00 0.0000000e+00 
6.0333333e+00 6.0100000e+00 0.0000000e+00 
6.0333333e+00 6.0300000e+00 0.0000000e+00 
6.0600000e+00 5.9700000e+00 0.0000000e+00 
6.0600000e+00 5.9900000e+00 0.0000000e+00 
6.0600000e+00 6.0100000e+00 0.0000000e+00 
6.0600000e+00 6.0300000e+00 0.0000000e+00 
6.0866667e+00 5.9700000e+00 0.0000000e+00 
6.0866667e+00 5.9900000e+00 0.0000000e+00 
6.0866667e+00 6.0100000e+00 0.0000000e+00 
6.0866667e+00 6.0300000e+00 0.0000000e+00 
6.1133333e+00 5.9700000e+00 0.0000000e+00 
6.1133333e+00 5.9900000e+00 0.0000000e+00 
6.1133333e+00 6.0100000e+00 0.0000000e+00 
6.1133333e+00 6.0300000e+00 0.0000000e+00 
6.1400000e+00 5.9700000e+00 0.0000000e+00 
6.1400000e+00 5.9900000e+00 0.0000000e+00 
6.1400000e+00 6.0100000e+00 0.0000000e+00 
6.1400000e+00 6.0300000e+00 0.0000000e+00 
6.1666667e+00 5.9700000e+00 0.0000000e+00 
6.1666667e+00 5.9900000e+00 0.0000000e+00 
6.1666667e+00 6.0100000e+00 0.0000000e+00 
6.1666667e+00 6.0300000e+00 0.0000000e+00 
6.1933333e+00 5.9700000e+00 0.0000000e+00 
6.1933333e+00 5.9900000e+00 0.0000000e+00 
6.1933333e+00 6.0100000e+00 0.0000000e+00 
6.1933333e+00 6.0300000e+00 0.0000000e+00 
6.2200000e+00 5.9700000e+00 0.0000000e+00 
6.2200000e+00 5.9900000e+00 0.0000000e+00 
6.2200000e+00 6.0100000e+00 0.0000000e+00 
6.2200000e+00 6.0300000e+00 0.0000000e+00 
6.2466667e+00 5.9700000e+00 0.0000000e+00 
6.2466667e+00 5.9900000e+00 0.0000000e+00 
6.2466667e+00 6.0100000e+00 0.0000000e+00 
6.2466667e+00 6.0300000e+00 0.0000000e+00 
6.2733333e+00 5.9700000e+00 0.0000000e+00 
6.2733333e+00 5.9900000e+00 0.0000000e+00 
6.2733333e+00 6.0100000e+00 0.0000000e+00 
6.2733333e+00 6.0300000e+00 0.0000000e+00 
6.3000000e+00 5.9700000e+00 0.0000000e+00 
6.3000000e+00 5.9900000e+00 0.0000000e+00 
6.3000000e+00 6.0100000e+00 0.0000000e+00 
6.3000000e+00 6.0300000e+00 0.0000000e+00 
6.3266667e+00 5.9700000e+00 0.0000000e+00 
6.3266667e+00 5.9900000e+00 0.0000000e+00 
6.3266667e+00 6.0100000e+00 0.0000000e+00 
6.3266667e+00 6.0300000e+00 0.0000000e+00 
6.3533333e+00 5.9700000e+00 0.0000000e+00 
6.3533333e+00 5.9900000e+00 0.0000000e+00 
6.3533333e+00 6.0100000e+00 0.0000000e+00 
6.3533333e+00 6.0300000e+00 0.0000000e+00 
6.3800000e+00 5.9700000e+00 0.0000000e+00 
6.3800000e+00 5.9900000e+00 0.0000000e+00 
6.3800000e+00 6.0100000e+00 0.0000000e+00 
6.3800000e+00 6.0300000e+00 0.0000000e+00 
6.4066667e+00 5.9700000e+00 0.0000000e+00 
6.4066667e+00 5.9900000e+00 0.0000000e+00 
6.4066667e+00 6.0100000e+00 0.0000000e+00 
6.4066667e+00 6.0300000e+00 0.0000000e+00 
6.4333333e+00 5.9700000e+00 0.0000000e+00 
6.4333333e+00 5.9900000e+00 0.0000000e+00 
6.4333333e+00 6.0100000e+00 0.0000000e+00 
6.4333333e+00 6.0300000e+00 0.0000000e+00 
6.4600000e+00 5.9700000e+00 0.0000000e+00 
6.4600000e+00 5.9900000e+00 0.0000000e+00 
6.4600000e+00 6.0100000e+00 0.0000000e+00 
6.4600000e+00 6.0300000e+00 0.0000000e+00 
6.4866667e+00 5.9700000e+00 0.0000000e+00 
6.4866667e+00 5.9900000e+00 0.0000000e+00 
6.4866667e+00 6.0100000e+00 0.0000000e+00 
6.4866667e+00 6.0300000e+00 0.0000000e+00 
6.5133333e+00 5.9700000e+00 0.0000000e+00 
6.5133333e+00 5.9900000e+00 0.0000000e+00 
6.5133333e+00 6.0100000e+00 0.0000000e+00 
6.5133333e+00 6.0300000e+00 0.0000000e+00 
6.5400000e+00 5.9700000e+00 0.0000000e+00 
6.5400000e+00 5.9900000e+00 0.0000000e+00 
6.5400000e+00 6.0100000e+00 0.0000000e+00 
6.5400000e+00 6.0300000e+00 0.0000000e+00 
6.5666667e+00 5.9700000e+00 0.0000000e+00 
6.5666667e+00 5.9900000e+00 0.0000000e+00 
6.5666667e+00 6.0100000e+00 0.0000000e+00 
6.5666667e+00 6.0300000e+00 0.0000000e+00 
6.5933333e+00 5.9700000e+00 0.0000000e+00 
6.5933333e+00 5.9900000e+00 0.0000000e+00 
6.5933333e+00 6.0100000e+00 0.0000000e+00 
6.5933333e+00 6.0300000e+00 0.0000000e+00 
6.6200000e+00 5.9700000e+00 0.0000000e+00 
6.6200000e+00 5.9900000e+00 0.0000000e+00 
6.6200000e+00 6.0100000e+00 0.0000000e+00 
6.6200000e+00 6.0300000e+00 0.0000000e+00 
6.6466667e+00 5.9700000e+00 0.0000000e+00 
6.6466667e+00 5.9900000e+00 0.0000000e+00 
6.6466667e+00 6.0100000e+00 0.0000000e+00 
6.6466667e+00 6.0300000e+00 0.0000000e+00 
6.6733333e+00 5.9700000e+00 0.0000000e+00 
6.6733333e+00 5.9900000e+00 0.0000000e+00 
6.6733333e+00 6.0100000e+00 0.0000000e+00 
6.6733333e+00 6.0300000e+00 0.0000000e+00 
6.7000000e+00 5.9700000e+00 0.0000000e+00 
6.7000000e+00 5.9900000e+00 0.0000000e+00 
6.7000000e+00 6.0100000e+00 0.0000000e+00 
6.7000000e+00 6.0300000e+00 0.0000000e+00 
6.7266667e+00 5.9700000e+00 0.0000000e+00 
6.7266667e+00 5.9900000e+00 0.0000000e+00 
6.7266667e+00 6.0100000e+00 0.0000000e+00 
6.7266667e+00 6.0300000e+00 0.0000000e+00 
6.7533333e+00 5.9700000e+00 0.0000000e+00 
6.7533333e+00 5.9900000e+00 0.0000000e+00 
6.7533333e+00 6.0100000e+00 0.0000000e+00 
6.7533333e+00 6.0300000e+00 0.0000000e+00 
6.7800000e+00 5.9700000e+00 0.0000000e+00 
6.7800000e+00 5.9900000e+00 0.0000000e+00 
6.7800000e+00 6.0100000e+00 0.0000000e+00 
6.7800000e+00 6.0300000e+00 0.0000000e+00 
6.8066667e+00 5.9700000e+00 0.0000000e+00 
6.8066667e+00 5.9900000e+00 0.0000000e+00 
6.8066667e+00 6.0100000e+00 0.0000000e+00 
6.8066667e+00 6.0300000e+00 0.0000000e+00 
6.8333333e+00 5.9700000e+00 0.0000000e+00 
6.8333333e+00 5.9900000e+00 0.0000000e+00 
6.8333333e+00 6.0100000e+00 0.0000000e+00 
6.8333333e+00 6.0300000e+00 0.0000000e+00 
6.8600000e+00 5.9700000e+00 0.0000000e+00 
6.8600000e+00 5.9900000e+00 0.0000000e+00 
6.8600000e+00 6.0100000e+00 0.0000000e+00 
6.8600000e+00 6.0300000e+00 0.0000000e+00 
6.8866667e+00 5.9700000e+00 0.0000000e+00 
6.8866667e+00 5.9900000e+00 0.0000000e+00 
6.8866667e+00 6.0100000e+00 0.0000000e+00 
6.8866667e+00 6.0300000e+00 0.0000000e+00 
6.9133333e+00 5.9700000e+00 0.0000000e+00 
6.9133333e+00 5.9900000e+00 0.0000000e+00 
6.9133333e+00 6.0100000e+00 0.0000000e+00 
6.9133333e+00 6.0300000e+00 0.0000000e+00 
6.9400000e+00 5.9700000e+00 0.0000000e+00 
6.9400000e+00 5.9900000e+00 0.0000000e+00 
6.9400000e+00 6.0100000e+00 0.0000000e+00 
6.9400000e+00 6.0300000e+00 0.0000000e+00 
6.9666667e+00 5.9700000e+00 0.0000000e+00 
6.9666667e+00 5.9900000e+00 0.0000000e+00 
6.9666667e+00 6.0100000e+00 0.0000000e+00 
6.9666667e+00 6.0300000e+00 0.0000000e+00 
6.9933333e+00 5.9700000e+00 0.0000000e+00 
6.9933333e+00 5.9900000e+00 0.0000000e+00 
6.9933333e+00 6.0100000e+00 0.0000000e+00 
6.9933333e+00 6.0300000e+00 0.0000000e+00 
7.0200000e+00 5.9700000e+00 0.0000000e+00 
7.0200000e+00 5.9900000e+00 0.0000000e+00 
[...]
POINT_DATA 604
FIELD FieldData 2
DISPLACEMENT 3 604  float
0.0000000e+00 0.0000000e+00 0.0000000e+00 
0.0000000e+00 0.0000000e+00 0.0000000e+00 
-7.4823423e-08 -4.7037554e-08 0.0000000e+00 
-2.4527736e-08 -3.0772011e-08 0.0000000e+00 
0.0000000e+00 0.0000000e+00 0.0000000e+00 
2.3252354e-08 -3.1330086e-08 0.0000000e+00 
-1.5021409e-07 -1.3997426e-07 0.0000000e+00 
-4.9313236e-08 -1.3343988e-07 0.0000000e+00 
0.0000000e+00 0.0000000e+00 0.0000000e+00 
7.6645687e-08 -4.6636066e-08 0.0000000e+00 
5.1299247e-08 -1.3791324e-07 0.0000000e+00 
-2.2279323e-07 -3.1859551e-07 0.0000000e+00 
1.5272810e-07 -1.5699807e-07 0.0000000e+00 
-7.2345253e-08 -3.0497767e-07 0.0000000e+00 
7.6928838e-08 -3.0630559e-07 0.0000000e+00 
2.2722484e-07 -3.1804350e-07 0.0000000e+00 
-2.9275966e-07 -5.4398823e-07 0.0000000e+00 
-9.4943787e-08 -5.3799836e-07 0.0000000e+00 
1.0180384e-07 -5.4200147e-07 0.0000000e+00 
2.9952320e-07 -5.6053205e-07 0.0000000e+00 
-3.6022460e-07 -8.4878753e-07 0.0000000e+00 
-1.1689618e-07 -8.3606532e-07 0.0000000e+00 
1.2572875e-07 -8.3693406e-07 0.0000000e+00 
3.6967973e-07 -8.4788129e-07 0.0000000e+00 
-4.2487680e-07 -1.1962643e-06 0.0000000e+00 
-1.3832722e-07 -1.1905731e-06 0.0000000e+00 
1.4864059e-07 -1.1956784e-06 0.0000000e+00 
4.3804192e-07 -1.2128958e-06 0.0000000e+00 
-4.8853264e-07 -1.6106048e-06 0.0000000e+00 
-1.5636910e-07 -1.6052562e-06 0.0000000e+00 
1.7344402e-07 -1.6103482e-06 0.0000000e+00 
5.0285264e-07 -1.6271235e-06 0.0000000e+00 
-5.4878775e-07 -2.0896454e-06 0.0000000e+00 
-1.7633468e-07 -2.0781069e-06 0.0000000e+00 
1.9482483e-07 -2.0789526e-06 0.0000000e+00 
5.6662305e-07 -2.0887225e-06 0.0000000e+00 
-6.0731062e-07 -2.6055813e-06 0.0000000e+00 
-1.9538036e-07 -2.6014305e-06 0.0000000e+00 
2.1566914e-07 -2.6053463e-06 0.0000000e+00 
6.2774341e-07 -2.6217938e-06 0.0000000e+00 
-6.6398512e-07 -3.1906605e-06 0.0000000e+00 
-2.1355310e-07 -3.1797718e-06 0.0000000e+00 
2.3594500e-07 -3.1810500e-06 0.0000000e+00 
6.8638743e-07 -3.1899555e-06 0.0000000e+00 
-7.1848116e-07 -3.8091607e-06 0.0000000e+00 
-2.3103946e-07 -3.8057704e-06 0.0000000e+00 
2.5548534e-07 -3.8096688e-06 0.0000000e+00 
7.4294754e-07 -3.8253849e-06 0.0000000e+00 
-7.7090304e-07 -4.4929230e-06 0.0000000e+00 
-2.4782962e-07 -4.4827667e-06 0.0000000e+00 
2.7432095e-07 -4.4840351e-06 0.0000000e+00 
7.9737351e-07 -4.4922011e-06 0.0000000e+00 
-8.2124808e-07 -5.2064009e-06 0.0000000e+00 
-2.6394668e-07 -5.2036962e-06 0.0000000e+00 
2.9244681e-07 -5.2075645e-06 0.0000000e+00 
8.4973485e-07 -5.2225152e-06 0.0000000e+00 
-8.6955048e-07 -5.9813489e-06 0.0000000e+00 
-2.7937911e-07 -5.9719156e-06 0.0000000e+00 
3.0989661e-07 -5.9731797e-06 0.0000000e+00 
9.0004819e-07 -5.9806386e-06 0.0000000e+00 
-9.1585819e-07 -6.7824825e-06 0.0000000e+00 
-2.9414266e-07 -6.7804552e-06 0.0000000e+00 
3.2667154e-07 -6.7843075e-06 0.0000000e+00 
9.4833538e-07 -6.7985256e-06 0.0000000e+00 
-9.6013937e-07 -7.6414196e-06 0.0000000e+00 
-3.0823874e-07 -7.6326922e-06 0.0000000e+00 
3.4279308e-07 -7.6339577e-06 0.0000000e+00 
9.9467536e-07 -7.6407343e-06 0.0000000e+00 
-1.0025088e-06 -8.5230876e-06 0.0000000e+00 
-3.2166786e-07 -8.5217327e-06 0.0000000e+00 
3.5827617e-07 -8.5255847e-06 0.0000000e+00 
1.0390240e-06 -8.5391047e-06 0.0000000e+00 
-1.0428718e-06 -9.4590227e-06 0.0000000e+00 
-3.3443999e-07 -9.4509922e-06 0.0000000e+00 
3.7313383e-07 -9.4522667e-06 0.0000000e+00 
1.0815195e-06 -9.4583923e-06 0.0000000e+00 
-1.0814262e-06 -1.0414387e-05 0.0000000e+00 
-3.4655019e-07 -1.0413643e-05 0.0000000e+00 
3.8738469e-07 -1.0417489e-05 0.0000000e+00 
1.1220319e-06 -1.0430288e-05 0.0000000e+00 
-1.1177310e-06 -1.1420587e-05 0.0000000e+00 
-3.5817195e-07 -1.1413337e-05 0.0000000e+00 
4.0087782e-07 -1.1414198e-05 0.0000000e+00 
1.1610420e-06 -1.1419794e-05 0.0000000e+00 
-1.1518106e-06 -1.2442651e-05 0.0000000e+00 
-3.6933854e-07 -1.2442113e-05 0.0000000e+00 
4.1358858e-07 -1.2447100e-05 0.0000000e+00 
1.1985882e-06 -1.2458803e-05 0.0000000e+00 
-1.1851393e-06 -1.3504117e-05 0.0000000e+00 
-3.7729084e-07 -1.3503935e-05 0.0000000e+00 
4.2831359e-07 -1.3508911e-05 0.0000000e+00 
1.2332343e-06 -1.3520334e-05 0.0000000e+00 
-1.2153346e-06 -1.4603428e-05 0.0000000e+00 
-3.8717025e-07 -1.4597158e-05 0.0000000e+00 
4.3990928e-07 -1.4598069e-05 0.0000000e+00 
1.2674524e-06 -1.4602755e-05 0.0000000e+00 
-1.2443769e-06 -1.5713711e-05 0.0000000e+00 
-3.9616263e-07 -1.5714667e-05 0.0000000e+00 
4.5122218e-07 -1.5718613e-05 0.0000000e+00 
1.2993094e-06 -1.5729948e-05 0.0000000e+00 
-1.2716902e-06 -1.6866984e-05 0.0000000e+00 
-4.0440921e-07 -1.6861240e-05 0.0000000e+00 
4.6212305e-07 -1.6862615e-05 0.0000000e+00 
1.3294197e-06 -1.6866611e-05 0.0000000e+00 
-1.2973968e-06 -1.8028265e-05 0.0000000e+00 
-4.1199064e-07 -1.8029953e-05 0.0000000e+00 
4.7254291e-07 -1.8033969e-05 0.0000000e+00 
1.3577011e-06 -1.8044833e-05 0.0000000e+00 
-1.3211388e-06 -1.9229632e-05 0.0000000e+00 
-4.1899006e-07 -1.9224496e-05 0.0000000e+00 
4.8241266e-07 -1.9225911e-05 0.0000000e+00 
1.3845502e-06 -1.9229326e-05 0.0000000e+00 
-1.3433476e-06 -2.0435774e-05 0.0000000e+00 
-4.2533086e-07 -2.0438134e-05 0.0000000e+00 
4.9182045e-07 -2.0442209e-05 0.0000000e+00 
1.4095703e-06 -2.0452568e-05 0.0000000e+00 
-1.3636155e-06 -2.1679164e-05 0.0000000e+00 
-4.3109493e-07 -2.1674633e-05 0.0000000e+00 
5.0069713e-07 -2.1676092e-05 0.0000000e+00 
1.4332101e-06 -2.1678948e-05 0.0000000e+00 
-1.3823969e-06 -2.2924223e-05 0.0000000e+00 
-4.3620345e-07 -2.2927252e-05 0.0000000e+00 
5.0913358e-07 -2.2931398e-05 0.0000000e+00 
1.4550458e-06 -2.2941275e-05 0.0000000e+00 
-1.3992557e-06 -2.4203772e-05 0.0000000e+00 
-4.4074669e-07 -2.4199835e-05 0.0000000e+00 
5.1705144e-07 -2.4201340e-05 0.0000000e+00 
1.4755565e-06 -2.4203652e-05 0.0000000e+00 
-1.4146730e-06 -2.5481925e-05 0.0000000e+00 
-4.4463859e-07 -2.5485617e-05 0.0000000e+00 
5.2454945e-07 -2.5489846e-05 0.0000000e+00 
1.4942900e-06 -2.5499262e-05 0.0000000e+00 
-1.4281984e-06 -2.6791888e-05 0.0000000e+00 
-4.4797058e-07 -2.6788540e-05 0.0000000e+00 
5.3154772e-07 -2.6790096e-05 0.0000000e+00 
1.5117421e-06 -2.6791885e-05 0.0000000e+00 
-1.4403508e-06 -2.8097529e-05 0.0000000e+00 
-4.5066291e-07 -2.8101814e-05 0.0000000e+00 
5.3813935e-07 -2.8106109e-05 0.0000000e+00 
1.5274216e-06 -2.8115020e-05 0.0000000e+00 
-1.4503635e-06 -2.9432345e-05 0.0000000e+00 
-4.5297333e-07 -2.9429682e-05 0.0000000e+00 
5.4407851e-07 -2.9430826e-05 0.0000000e+00 
1.5421433e-06 -2.9432215e-05 0.0000000e+00 
-1.4585215e-06 -3.0759610e-05 0.0000000e+00 
-4.5487087e-07 -3.0764045e-05 0.0000000e+00 
5.4940655e-07 -3.0769649e-05 0.0000000e+00 
1.5556501e-06 -3.0777632e-05 0.0000000e+00 
-1.4662029e-06 -3.2104727e-05 0.0000000e+00 
-4.5342780e-07 -3.2109551e-05 0.0000000e+00 
5.5708224e-07 -3.2115162e-05 0.0000000e+00 
1.5666141e-06 -3.2123014e-05 0.0000000e+00 
-1.4708793e-06 -3.3466670e-05 0.0000000e+00 
-4.5417017e-07 -3.3464828e-05 0.0000000e+00 
5.6157730e-07 -3.3466085e-05 0.0000000e+00 
1.5776450e-06 -3.3466728e-05 0.0000000e+00 
-1.4748051e-06 -3.4816634e-05 0.0000000e+00 
-4.5405389e-07 -3.4822594e-05 0.0000000e+00 
5.6596846e-07 -3.4827166e-05 0.0000000e+00 
1.5865182e-06 -3.4835146e-05 0.0000000e+00 
-1.4772271e-06 -3.6189863e-05 0.0000000e+00 
-4.5327985e-07 -3.6188434e-05 0.0000000e+00 
5.7006364e-07 -3.6190207e-05 0.0000000e+00 
1.5940458e-06 -3.6190262e-05 0.0000000e+00 
-1.4783913e-06 -3.7548551e-05 0.0000000e+00 
-4.5190272e-07 -3.7555200e-05 0.0000000e+00 
5.7382609e-07 -3.7559885e-05 0.0000000e+00 
1.6000111e-06 -3.7567573e-05 0.0000000e+00 
-1.4778350e-06 -3.8928299e-05 0.0000000e+00 
-4.5004675e-07 -3.8927366e-05 0.0000000e+00 
5.7714426e-07 -3.8929196e-05 0.0000000e+00 
1.6049391e-06 -3.8928777e-05 0.0000000e+00 
-1.4760914e-06 -4.0290690e-05 0.0000000e+00 
-4.4760793e-07 -4.0297951e-05 0.0000000e+00 
5.8014118e-07 -4.0302731e-05 0.0000000e+00 
1.6083284e-06 -4.0310082e-05 0.0000000e+00 
-1.4726909e-06 -4.1672002e-05 0.0000000e+00 
-4.4470159e-07 -4.1671554e-05 0.0000000e+00 
5.8271520e-07 -4.1673441e-05 0.0000000e+00 
1.6107155e-06 -4.1672573e-05 0.0000000e+00 
-1.4681503e-06 -4.3033310e-05 0.0000000e+00 
-4.4123054e-07 -4.3041164e-05 0.0000000e+00 
5.8498431e-07 -4.3046044e-05 0.0000000e+00 
1.6116193e-06 -4.3053078e-05 0.0000000e+00 
-1.4620153e-06 -4.4411490e-05 0.0000000e+00 
-4.3731164e-07 -4.4411509e-05 0.0000000e+00 
5.8684664e-07 -4.4413450e-05 0.0000000e+00 
1.6115660e-06 -4.4412153e-05 0.0000000e+00 
-1.4547911e-06 -4.5767107e-05 0.0000000e+00 
-4.3284878e-07 -4.5775536e-05 0.0000000e+00 
5.8842097e-07 -4.5780521e-05 0.0000000e+00 
1.6100913e-06 -4.5787257e-05 0.0000000e+00 
-1.4460529e-06 -4.7137647e-05 0.0000000e+00 
-4.2795247e-07 -4.7138120e-05 0.0000000e+00 
5.8961343e-07 -4.7140116e-05 0.0000000e+00 
1.6076967e-06 -4.7138416e-05 0.0000000e+00 
-1.4363080e-06 -4.8483269e-05 0.0000000e+00 
-4.2254249e-07 -4.8492175e-05 0.0000000e+00 
5.9052868e-07 -4.8497242e-05 0.0000000e+00 
1.6039222e-06 -4.8503628e-05 0.0000000e+00 
-1.4248218e-06 -4.9841935e-05 0.0000000e+00 
-4.1690915e-07 -4.9842957e-05 0.0000000e+00 
5.9089592e-07 -4.9844484e-05 0.0000000e+00 
1.5995834e-06 -4.9842525e-05 0.0000000e+00 
-1.4117911e-06 -5.1173050e-05 0.0000000e+00 
-4.1103995e-07 -5.1181918e-05 0.0000000e+00 
5.9074673e-07 -5.1188441e-05 0.0000000e+00 
1.5945393e-06 -5.1193998e-05 0.0000000e+00 
-1.3989111e-06 -5.2505580e-05 0.0000000e+00 
-4.0165287e-07 -5.2514773e-05 0.0000000e+00 
5.9342041e-07 -5.2521321e-05 0.0000000e+00 
1.5871807e-06 -5.2526841e-05 0.0000000e+00 
-1.3833995e-06 -5.3838988e-05 0.0000000e+00 
-3.9495823e-07 -5.3840573e-05 0.0000000e+00 
5.9270282e-07 -5.3842205e-05 0.0000000e+00 
1.5804403e-06 -5.3839707e-05 0.0000000e+00 
-1.3676227e-06 -5.5141489e-05 0.0000000e+00 
-3.8756843e-07 -5.5151709e-05 0.0000000e+00 
5.9204293e-07 -5.5157063e-05 0.0000000e+00 
1.5720251e-06 -5.5162947e-05 0.0000000e+00 
-1.3509859e-06 -5.6453260e-05 0.0000000e+00 
-3.7968242e-07 -5.6455052e-05 0.0000000e+00 
5.9126126e-07 -5.6457244e-05 0.0000000e+00 
1.5626241e-06 -5.6454304e-05 0.0000000e+00 
-1.3335446e-06 -5.7732460e-05 0.0000000e+00 
-3.7140333e-07 -5.7743188e-05 0.0000000e+00 
5.9028594e-07 -5.7748647e-05 0.0000000e+00 
1.5522606e-06 -5.7754425e-05 0.0000000e+00 
-1.3150558e-06 -5.9019686e-05 0.0000000e+00 
-3.6284328e-07 -5.9021764e-05 0.0000000e+00 
5.8903319e-07 -5.9023998e-05 0.0000000e+00 
1.5412723e-06 -5.9020756e-05 0.0000000e+00 
-1.2958689e-06 -6.0272467e-05 0.0000000e+00 
-3.5393326e-07 -6.0283593e-05 0.0000000e+00 
5.8760310e-07 -6.0289131e-05 0.0000000e+00 
1.5293970e-06 -6.0294756e-05 0.0000000e+00 
-1.2757608e-06 -6.1532150e-05 0.0000000e+00 
-3.4476887e-07 -6.1534490e-05 0.0000000e+00 
5.8593090e-07 -6.1536762e-05 0.0000000e+00 
1.5169532e-06 -6.1533260e-05 0.0000000e+00 
-1.2550360e-06 -6.2755789e-05 0.0000000e+00 
-3.3529395e-07 -6.2767274e-05 0.0000000e+00 
5.8410406e-07 -6.2772891e-05 0.0000000e+00 
1.5037314e-06 -6.2778388e-05 0.0000000e+00 
-1.2335108e-06 -6.3985360e-05 0.0000000e+00 
-3.2559981e-07 -6.3987926e-05 0.0000000e+00 
5.8206428e-07 -6.3990232e-05 0.0000000e+00 
1.4900095e-06 -6.3986502e-05 0.0000000e+00 
-1.2114531e-06 -6.5177464e-05 0.0000000e+00 
-3.1563596e-07 -6.5189266e-05 0.0000000e+00 
5.7989312e-07 -6.5194962e-05 0.0000000e+00 
1.4756219e-06 -6.5200358e-05 0.0000000e+00 
-1.1887302e-06 -6.6374684e-05 0.0000000e+00 
-3.0548079e-07 -6.6377451e-05 0.0000000e+00 
5.7754703e-07 -6.6379788e-05 0.0000000e+00 
1.4607931e-06 -6.6375872e-05 0.0000000e+00 
-1.1655913e-06 -6.7533316e-05 0.0000000e+00 
-2.9510457e-07 -6.7545312e-05 0.0000000e+00 
5.7508590e-07 -6.7551056e-05 0.0000000e+00 
1.4453817e-06 -6.7556294e-05 0.0000000e+00 
-1.1415774e-06 -6.8696373e-05 0.0000000e+00 
-2.8477878e-07 -6.8699433e-05 0.0000000e+00 
5.7227566e-07 -6.8701219e-05 0.0000000e+00 
1.4299349e-06 -6.8697282e-05 0.0000000e+00 
-1.1165610e-06 -6.9819483e-05 0.0000000e+00 
-2.7456092e-07 -6.9831087e-05 0.0000000e+00 
5.6907912e-07 -6.9838365e-05 0.0000000e+00 
1.4146931e-06 -6.9842917e-05 0.0000000e+00 
-1.0927310e-06 -7.0935565e-05 0.0000000e+00 
-2.6079205e-07 -7.0947317e-05 0.0000000e+00 
5.6923283e-07 -7.0954629e-05 0.0000000e+00 
1.3975532e-06 -7.0959218e-05 0.0000000e+00 
-1.0670288e-06 -7.2044681e-05 0.0000000e+00 
-2.5034475e-07 -7.2047879e-05 0.0000000e+00 
5.6585916e-07 -7.2049709e-05 0.0000000e+00 
1.3817637e-06 -7.2045590e-05 0.0000000e+00 
-1.0417563e-06 -7.3112589e-05 0.0000000e+00 
-2.3951327e-07 -7.3125106e-05 0.0000000e+00 
5.6273529e-07 -7.3131011e-05 0.0000000e+00 
1.3651369e-06 -7.3136230e-05 0.0000000e+00 
-1.0166412e-06 -7.4184241e-05 0.0000000e+00 
-2.2844206e-07 -7.4187342e-05 0.0000000e+00 
5.5974489e-07 -7.4189756e-05 0.0000000e+00 
1.3480178e-06 -7.4185424e-05 0.0000000e+00 
-9.9136277e-07 -7.5214505e-05 0.0000000e+00 
-2.1731311e-07 -7.5227210e-05 0.0000000e+00 
5.5672973e-07 -7.5233173e-05 0.0000000e+00 
1.3308372e-06 -7.5238494e-05 0.0000000e+00 
-9.6602601e-07 -7.6248547e-05 0.0000000e+00 
-2.0617996e-07 -7.6251645e-05 0.0000000e+00 
5.5367184e-07 -7.6254066e-05 0.0000000e+00 
1.3135530e-06 -7.6249681e-05 0.0000000e+00 
-9.4062585e-07 -7.7240775e-05 0.0000000e+00 
-1.9503442e-07 -7.7253547e-05 0.0000000e+00 
5.5059936e-07 -7.7259534e-05 0.0000000e+00 
1.2962762e-06 -7.7264893e-05 0.0000000e+00 
-9.1528851e-07 -7.8236902e-05 0.0000000e+00 
-1.8390646e-07 -7.8239979e-05 0.0000000e+00 
5.4751633e-07 -7.8242402e-05 0.0000000e+00 
1.2789353e-06 -7.8238001e-05 0.0000000e+00 
-8.8994988e-07 -7.9191069e-05 0.0000000e+00 
-1.7280268e-07 -7.9203868e-05 0.0000000e+00 
5.4443336e-07 -7.9209877e-05 0.0000000e+00 
1.2616943e-06 -7.9215289e-05 0.0000000e+00 
-8.6477681e-07 -8.0149363e-05 0.0000000e+00 
-1.6174370e-07 -8.0152393e-05 0.0000000e+00 
5.4136166e-07 -8.0154813e-05 0.0000000e+00 
1.2444332e-06 -8.0150420e-05 0.0000000e+00 
-8.3965736e-07 -8.1065703e-05 0.0000000e+00 
-1.5074303e-07 -8.1078493e-05 0.0000000e+00 
5.3830230e-07 -8.1084520e-05 0.0000000e+00 
1.2273566e-06 -8.1089995e-05 0.0000000e+00 
-8.1480982e-07 -8.1986489e-05 0.0000000e+00 
-1.3980319e-07 -8.1989458e-05 0.0000000e+00 
5.3528208e-07 -8.1991870e-05 0.0000000e+00 
1.2102853e-06 -8.1987520e-05 0.0000000e+00 
-7.9009653e-07 -8.2865589e-05 0.0000000e+00 
-1.2895985e-07 -8.2878250e-05 0.0000000e+00 
5.3227724e-07 -8.2884260e-05 0.0000000e+00 
1.1934418e-06 -8.2889723e-05 0.0000000e+00 
-7.6539225e-07 -8.3749498e-05 0.0000000e+00 
-1.1841301e-07 -8.3752518e-05 0.0000000e+00 
5.2911493e-07 -8.3754314e-05 0.0000000e+00 
1.1769822e-06 -8.3750159e-05 0.0000000e+00 
-7.4014897e-07 -8.4591688e-05 0.0000000e+00 
-1.0830199e-07 -8.4603615e-05 0.0000000e+00 
5.2566126e-07 -8.4611133e-05 0.0000000e+00 
1.1615319e-06 -8.4616013e-05 0.0000000e+00 
-7.1695787e-07 -8.5427659e-05 0.0000000e+00 
-9.4724430e-08 -8.5439535e-05 0.0000000e+00 
5.2585986e-07 -8.5447079e-05 0.0000000e+00 
1.1445255e-06 -8.5451997e-05 0.0000000e+00 
-6.9255017e-07 -8.6257753e-05 0.0000000e+00 
-8.4887879e-08 -8.6260581e-05 0.0000000e+00 
5.2249842e-07 -8.6262339e-05 0.0000000e+00 
1.1293234e-06 -8.6258282e-05 0.0000000e+00 
-6.6899658e-07 -8.7046765e-05 0.0000000e+00 
-7.4928106e-08 -8.7059162e-05 0.0000000e+00 
5.1947279e-07 -8.7065126e-05 0.0000000e+00 
1.1139148e-06 -8.7070789e-05 0.0000000e+00 
-6.4635055e-07 -8.7841930e-05 0.0000000e+00 
-6.4900039e-08 -8.7844463e-05 0.0000000e+00 
5.1674183e-07 -8.7846794e-05 0.0000000e+00 
1.0982598e-06 -8.7842678e-05 0.0000000e+00 
-6.2388780e-07 -8.8596940e-05 0.0000000e+00 
-5.5062568e-08 -8.8609266e-05 0.0000000e+00 
5.1405092e-07 -8.8615218e-05 0.0000000e+00 
1.0831351e-06 -8.8621053e-05 0.0000000e+00 
-6.0203263e-07 -8.9358773e-05 0.0000000e+00 
-4.5382670e-08 -8.9361137e-05 0.0000000e+00 
5.1144885e-07 -8.9363435e-05 0.0000000e+00 
1.0681237e-06 -8.9359407e-05 0.0000000e+00 
-5.8040877e-07 -9.0081007e-05 0.0000000e+00 
-3.5918172e-08 -9.0093157e-05 0.0000000e+00 
5.0888003e-07 -9.0099063e-05 0.0000000e+00 
1.0536469e-06 -9.0104982e-05 0.0000000e+00 
-5.5944833e-07 -9.0810710e-05 0.0000000e+00 
-2.6612355e-08 -9.0812909e-05 0.0000000e+00 
5.0641458e-07 -9.0815172e-05 0.0000000e+00 
1.0392760e-06 -9.0811251e-05 0.0000000e+00 
-5.3873075e-07 -9.1501560e-05 0.0000000e+00 
-1.7536568e-08 -9.1513515e-05 0.0000000e+00 
5.0398210e-07 -9.1519372e-05 0.0000000e+00 
1.0254697e-06 -9.1525372e-05 0.0000000e+00 
-5.1871351e-07 -9.2200529e-05 0.0000000e+00 
-8.6271472e-09 -9.2202555e-05 0.0000000e+00 
5.0165751e-07 -9.2204778e-05 0.0000000e+00 
1.0117701e-06 -9.2200971e-05 0.0000000e+00 
-4.9894675e-07 -9.2861440e-05 0.0000000e+00 
4.0075353e-11 -9.2873184e-05 0.0000000e+00 
4.9936472e-07 -9.2878992e-05 0.0000000e+00 
9.9865916e-07 -9.2885070e-05 0.0000000e+00 
-4.7992193e-07 -9.3531121e-05 0.0000000e+00 
8.5432133e-09 -9.3532981e-05 0.0000000e+00 
4.9719120e-07 -9.3535162e-05 0.0000000e+00 
9.8564170e-07 -9.3531485e-05 0.0000000e+00 
-4.6118450e-07 -9.4163703e-05 0.0000000e+00 
1.6788037e-08 -9.4175141e-05 0.0000000e+00 
4.9504145e-07 -9.4180869e-05 0.0000000e+00 
9.7319884e-07 -9.4186937e-05 0.0000000e+00 
-4.4287387e-07 -9.4805670e-05 0.0000000e+00 
2.4655723e-08 -9.4807489e-05 0.0000000e+00 
4.9280434e-07 -9.4809034e-05 0.0000000e+00 
9.6118480e-07 -9.4805619e-05 0.0000000e+00 
-4.2414807e-07 -9.5411113e-05 0.0000000e+00 
3.1947326e-08 -9.5421674e-05 0.0000000e+00 
4.9027776e-07 -9.5428799e-05 0.0000000e+00 
9.5046287e-07 -9.5434290e-05 0.0000000e+00 
-4.0775220e-07 -9.6015342e-05 0.0000000e+00 
4.2539049e-08 -9.6025740e-05 0.0000000e+00 
4.9134741e-07 -9.6032877e-05 0.0000000e+00 
9.3828005e-07 -9.6038357e-05 0.0000000e+00 
-3.9042974e-07 -9.6618614e-05 0.0000000e+00 
4.9369471e-08 -9.6620146e-05 0.0000000e+00 
4.8894757e-07 -9.6621593e-05 0.0000000e+00 
9.2790904e-07 -9.6618354e-05 0.0000000e+00 
-3.7399500e-07 -9.7186771e-05 0.0000000e+00 
5.6211913e-08 -9.7197565e-05 0.0000000e+00 
4.8685610e-07 -9.7203084e-05 0.0000000e+00 
9.1754760e-07 -9.7209272e-05 0.0000000e+00 
-3.5870655e-07 -9.7765879e-05 0.0000000e+00 
6.3075644e-08 -9.7767073e-05 0.0000000e+00 
4.8508422e-07 -9.7769058e-05 0.0000000e+00 
9.0692503e-07 -9.7765793e-05 0.0000000e+00 
-3.4362791e-07 -9.8311132e-05 0.0000000e+00 
6.9665355e-08 -9.8321761e-05 0.0000000e+00 
4.8333262e-07 -9.8327225e-05 0.0000000e+00 
8.9698640e-07 -9.8333558e-05 0.0000000e+00 
-3.2935243e-07 -9.8868039e-05 0.0000000e+00 
7.6065712e-08 -9.8869032e-05 0.0000000e+00 
4.8168799e-07 -9.8870964e-05 0.0000000e+00 
8.8712425e-07 -9.8867809e-05 0.0000000e+00 
-3.1531087e-07 -9.9391909e-05 0.0000000e+00 
8.2183870e-08 -9.9402287e-05 0.0000000e+00 
4.8005279e-07 -9.9407667e-05 0.0000000e+00 
8.7791295e-07 -9.9414055e-05 0.0000000e+00 
-3.0208420e-07 -9.9928071e-05 0.0000000e+00 
8.8121812e-08 -9.9928878e-05 0.0000000e+00 
4.7852995e-07 -9.9930755e-05 0.0000000e+00 
8.6875608e-07 -9.9927720e-05 0.0000000e+00 
-2.8908276e-07 -1.0043213e-04 0.0000000e+00 
9.3778374e-08 -1.0044226e-04 0.0000000e+00 
4.7701313e-07 -1.0044756e-04 0.0000000e+00 
8.6024512e-07 -1.0045400e-04 0.0000000e+00 
-2.7689315e-07 -1.0094910e-04 0.0000000e+00 
9.9256430e-08 -1.0094972e-04 0.0000000e+00 
4.7560517e-07 -1.0095154e-04 0.0000000e+00 
8.5177683e-07 -1.0094862e-04 0.0000000e+00 
-2.6491836e-07 -1.0143488e-04 0.0000000e+00 
1.0445498e-07 -1.0144476e-04 0.0000000e+00 
4.7419946e-07 -1.0144998e-04 0.0000000e+00 
8.4394699e-07 -1.0145646e-04 0.0000000e+00 
-2.5376003e-07 -1.0193416e-04 0.0000000e+00 
1.0948534e-07 -1.0193461e-04 0.0000000e+00 
4.7290636e-07 -1.0193638e-04 0.0000000e+00 
8.3613638e-07 -1.0193359e-04 0.0000000e+00 
-2.4283575e-07 -1.0240328e-04 0.0000000e+00 
1.1423326e-07 -1.0241282e-04 0.0000000e+00 
4.7160566e-07 -1.0241795e-04 0.0000000e+00 
8.2892329e-07 -1.0242439e-04 0.0000000e+00 
-2.3239930e-07 -1.0288642e-04 0.0000000e+00 
1.1861934e-07 -1.0288683e-04 0.0000000e+00 
4.7021613e-07 -1.0288798e-04 0.0000000e+00 
8.2203549e-07 -1.0288543e-04 0.0000000e+00 
-2.2151588e-07 -1.0334001e-04 0.0000000e+00 
1.2243091e-07 -1.0334870e-04 0.0000000e+00 
4.6851891e-07 -1.0335511e-04 0.0000000e+00 
8.1640113e-07 -1.0336098e-04 0.0000000e+00 