# vtk DataFile Version 4.0
vtk output
ASCII
DATASET UNSTRUCTURED_GRID
POINTS 604 float
5.5000000e+00 5.9700000e+00 0.0000000e+00 
5.5000000e+00 5.9900000e+00 0.0000000e+00 
5.5266667e+00 5.9700000e+00 0.0000000e+00 
5.5266667e+00 5.9900000e+00 0.0000000e+00 
5.5000000e+00 6.0100000e+00 0.0000000e+00 
5.5266667e+00 6.0100000e+00 0.0000000e+00 
5.5533333e+00 5.9700000e+00 0.0000000e+00 
5.5533333e+00 5.9900000e+00 0.0000000e+00 
5.5000000e+00 6.0300000e+00 0.0000000e+00 
5.5266667e+00 6.0300000e+00 0.0000000e+00 
5.5533333e+00 6.0100000e+00 0.0000000e+00 
5.5800000e+00 5.9700000e+00 0.0000000e+00 
5.5533333e+00 6.0300000e+00 0.0000000e+00 
5.5800000e+00 5.9900000e+00 0.0000000e+00 
5.5800000e+00 6.0100000e+00 0.0000000e+00 
5.5800000e+00 6.0300000e+00 0.0000000e+00 
5.6066667e+00 5.9700000e+00 0.0000000e+00 
5.6066667e+00 5.9900000e+00 0.0000000e+00 
5.6066667e+00 6.0100000e+00 0.0000000e+00 
5.6066667e+00 6.0300000e+00 0.0000000e+00 
5.6333333e+00 5.9700000e+00 0.0000000e+00 
5.6333333e+00 5.9900000e+00 0.0000000e+00 
5.6333333e+00 6.0100000e+00 0.0000000e+00 
5.6333333e+00 6.0300000e+00 0.0000000e+00 
5.6600000e+00 5.9700000e+00 0.0000000e+00 
5.6600000e+00 5.9900000e+00 0.0000000e+00 
5.6600000e+00 6.0100000e+00 0.0000000e+00 
5.6600000e+00 6.0300000e+00 0.0000000e+00 
5.6866667e+00 5.9700000e+00 0.0000000e+00 
5.6866667e+00 5.9900000e+00 0.0000000e+00 
5.6866667e+00 6.0100000e+00 0.0000000e+00 
5.6866667e+00 6.0300000e+00 0.0000000e+00 
5.7133333e+00 5.9700000e+00 0.0000000e+00 
5.7133333e+00 5.9900000e+00 0.0000000e+00 
5.7133333e+00 6.0100000e+00 0.0000000e+00 
5.7133333e+00 6.0300000e+00 0.0000000e+00 
5.7400000e+00 5.9700000e+00 0.0000000e+00 
5.7400000e+00 5.9900000e+00 0.0000000e+00 
5.7400000e+00 6.0100000e+00 0.0000000e+00 
5.7400000e+00 6.0300000e+00 0.0000000e+00 
5.7666667e+00 5.9700000e+00 0.0000000e+00 
5.7666667e+00 5.9900000e+00 0.0000000e+00 
5.7666667e+00 6.0100000e+00 0.0000000e+00 
5.7666667e+00 6.0300000e+00 0.0000000e+00 
5.7933333e+00 5.9700000e+00 0.0000000e+00 
5.7933333e+00 5.9900000e+00 0.0000000e+00 
5.7933333e+00 6.0100000e+00 0.0000000e+00 
5.7933333e+00 6.0300000e+00 0.0000000e+00 
5.8200000e+00 5.9700000e+00 0.0000000e+00 
5.8200000e+00 5.9900000e+00 0.0000000e+00 
5.8200000e+00 6.0100000e+00 0.0000000e+00 
5.8200000e+00 6.0300000e+00 0.0000000e+00 
5.8466667e+00 5.9700000e+00 0.0000000e+00 
5.8466667e+00 5.9900000e+00 0.0000000e+00 
5.8466667e+00 6.0100000e+00 0.0000000e+00 
5.8466667e+00 6.0300000e+00 0.0000000e+00 
5.8733333e+00 5.9700000e+00 0.0000000e+00 
5.8733333e+00 5.9900000e+00 0.0000000e+00 
5.8733333e+00 6.0100000e+00 0.0000000e+00 
5.8733333e+00 6.0300000e+00 0.0000000e+00 
5.9000000e+00 5.9700000e+00 0.0000000e+00 
5.9000000e+00 5.9900000e+00 0.0000000e+00 
5.9000000e+00 6.0100000e+00 0.0000000e+00 
5.9000000e+00 6.0300000e+00 0.0000000e+00 
5.9266667e+00 5.9700000e+00 0.0000000e+00 
5.9266667e+00 5.9900000e+00 0.0000000e+00 
5.9266667e+00 6.0100000e+00 0.0000000e+00 
5.9266667e+00 6.0300000e+00 0.0000000e+00 
5.9533333e+00 5.9700000e+00 0.0000000e+00 
5.9533333e+00 5.9900000e+00 0.0000000e+00 
5.9533333e+00 6.0100000e+00 0.0000000e+00 
5.9533333e+00 6.0300000e+00 0.0000000e+00 
5.9800000e+00 5.9700000e+00 0.0000000e+00 
5.9800000e+00 5.9900000e+00 0.0000000e+00 
5.9800000e+00 6.0100000e+00 0.0000000e+00 
5.9800000e+00 6.0300000e+00 0.0000000e+00 
6.0066667e+00 5.9700000e+00 0.0000000e+00 
6.0066667e+00 5.9900000e+00 0.0000000e+00 
6.0066667e+00 6.0100000e+00 0.0000000e+00 
6.0066667e+00 6.0300000e+00 0.0000000e+00 
6.0333333e+00 5.9700000e+00 0.0000000e+00 
6.0333333e+00 5.9900000e+00 0.0000000e+00 
6.0333333e+00 6.0100000e+00 0.0000000e+00 
6.0333333e+00 6.0300000e+00 0.0000000e+00 
6.0600000e+00 5.9700000e+00 0.0000000e+00 
6.0600000e+00 5.9900000e+00 0.0000000e+00 
6.0600000e+00 6.0100000e+00 0.0000000e+00 
6.0600000e+00 6.0300000e+00 0.0000000e+00 
6.0866667e+00 5.9700000e+00 0.0000000e+00 
6.0866667e+00 5.9900000e+00 0.0000000e+00 
6.0866667e+00 6.0100000e+00 0.0000000e+00 
6.0866667e+00 6.0300000e+00 0.0000000e+00 
6.1133333e+00 5.9700000e+00 0.0000000e+00 
6.1133333e+00 5.9900000e+00 0.0000000e+00 
6.1133333e+00 6.0100000e+00 0.0000000e+00 
6.1133333e+00 6.0300000e+00 0.0000000e+00 
6.1400000e+00 5.9700000e+00 0.0000000e+00 
6.1400000e+00 5.9900000e+00 0.0000000e+00 
6.1400000e+00 6.0100000e+00 0.0000000e+00 
6.1400000e+00 6.0300000e+00 0.0000000e+00 
6.1666667e+00 5.9700000e+00 0.0000000e+00 
6.1666667e+00 5.9900000e+00 0.0000000e+00 
6.1666667e+00 6.0100000e+00 0.0000000e+00 
6.1666667e+00 6.0300000e+00 0.0000000e+00 
6.1933333e+00 5.9700000e+00 0.0000000e+00 
6.1933333e+00 5.9900000e+00 0.0000000e+00 
6.1933333e+00 6.0100000e+00 0.0000000e+00 
6.1933333e+00 6.0300000e+00 0.0000000e+00 
6.2200000e+00 5.9700000e+00 0.0000000e+00 
6.2200000e+00 5.9900000e+00 0.0000000e+00 
6.2200000e+00 6.0100000e+00 0.0000000e+00 
6.2200000e+00 6.0300000e+00 0.0000000e+00 
6.2466667e+00 5.9700000e+00 0.0000000e+00 
6.2466667e+00 5.9900000e+00 0.0000000e+00 
6.2466667e+00 6.0100000e+00 0.0000000e+00 
6.2466667e+00 6.0300000e+00 0.0000000e+00 
6.2733333e+00 5.9700000e+00 0.0000000e+00 
6.2733333e+00 5.9900000e+00 0.0000000e+00 
6.2733333e+00 6.0100000e+00 0.0000000e+00 
6.2733333e+00 6.0300000e+00 0.0000000e+00 
6.3000000e+00 5.9700000e+00 0.0000000e+00 
6.3000000e+00 5.9900000e+00 0.0000000e+00 
6.3000000e+00 6.0100000e+00 0.0000000e+00 
6.3000000e+00 6.0300000e+00 0.0000000e+00 
6.3266667e+00 5.9700000e+00 0.0000000e+00 
6.3266667e+00 5.9900000e+00 0.0000000e+00 
6.3266667e+00 6.0100000e+00 0.0000000e+00 
6.3266667e+00 6.0300000e+00 0.0000000e+00 
6.3533333e+00 5.9700000e+00 0.0000000e+00 
6.3533333e+00 5.9900000e+00 0.0000000e+00 
6.3533333e+00 6.0100000e+00 0.0000000e+00 
6.3533333e+00 6.0300000e+00 0.0000000e+00 
6.3800000e+00 5.9700000e+00 0.0000000e+00 
6.3800000e+00 5.9900000e+00 0.0000000e+00 
6.3800000e+00 6.0100000e+00 0.0000000e+00 
6.3800000e+00 6.0300000e+00 0.0000000e+00 
6.4066667e+00 5.9700000e+00 0.0000000e+00 
6.4066667e+00 5.9900000e+00 0.0000000e+00 
6.4066667e+00 6.0100000e+00 0.0000000e+00 
6.4066667e+00 6.0300000e+00 0.0000000e+00 
6.4333333e+00 5.9700000e+00 0.0000000e+00 
6.4333333e+00 5.9900000e+00 0.0000000e+00 
6.4333333e+00 6.0100000e+00 0.0000000e+00 
6.4333333e+00 6.0300000e+00 0.0000000e+00 
6.4600000e+00 5.9700000e+00 0.0000000e+00 
6.4600000e+00 5.9900000e+00 0.0000000e+00 
6.4600000e+00 6.0100000e+00 0.0000000e+00 
6.4600000e+00 6.0300000e+00 0.0000000e+00 
6.4866667e+00 5.9700000e+00 0.0000000e+00 
6.4866667e+00 5.9900000e+00 0.0000000e+00 
6.4866667e+00 6.0100000e+00 0.0000000e+00 
6.4866667e+00 6.0300000e+00 0.0000000e+00 
6.5133333e+00 5.9700000e+00 0.0000000e+00 
6.5133333e+00 5.9900000e+00 0.0000000e+00 
6.5133333e+00 6.0100000e+00 0.0000000e+00 
6.5133333e+00 6.0300000e+00 0.0000000e+00 
6.5400000e+00 5.9700000e+00 0.0000000e+00 
6.5400000e+00 5.9900000e+00 0.0000000e+00 
6.5400000e+00 6.0100000e+00 0.0000000e+00 
6.5400000e+00 6.0300000e+00 0.0000000e+00 
6.5666667e+00 5.9700000e+00 0.0000000e+00 
6.5666667e+00 5.9900000e+00 0.0000000e+00 
6.5666667e+00 6.0100000e+00 0.0000000e+00 
6.5666667e+00 6.0300000e+00 0.0000000e+00 
6.5933333e+00 5.9700000e+00 0.0000000e+00 
6.5933333e+00 5.9900000e+00 0.0000000e+00 
6.5933333e+00 6.0100000e+00 0.0000000e+00 
6.5933333e+00 6.0300000e+00 0.0000000e+00 
6.6200000e+00 5.9700000e+00 0.0000000e+00 
6.6200000e+00 5.9900000e+00 0.0000000e+00 
6.6200000e+00 6.0100000e+00 0.0000000e+00 
6.6200000e+00 6.0300000e+00 0.0000000e+00 
6.6466667e+00 5.9700000e+00 0.0000000e+00 
6.6466667e+00 5.9900000e+00 0.0000000e+00 
6.6466667e+00 6.0100000e+00 0.0000000e+00 
6.6466667e+00 6.0300000e+00 0.0000000e+00 
6.6733333e+00 5.9700000e+00 0.0000000e+00 
6.6733333e+00 5.9900000e+00 0.0000000e+00 
6.6733333e+00 6.0100000e+00 0.0000000e+00 
6.6733333e+00 6.0300000e+00 0.0000000e+00 
6.7000000e+00 5.9700000e+00 0.0000000e+00 
6.7000000e+00 5.9900000e+00 0.0000000e+00 
6.7000000e+00 6.0100000e+00 0.0000000e+00 
6.7000000e+00 6.0300000e+00 0.0000000e+00 
6.7266667e+00 5.9700000e+00 0.0000000e+00 
6.7266667e+00 5.9900000e+00 0.0000000e+00 
6.7266667e+00 6.0100000e+00 0.0000000e+00 
6.7266667e+00 6.0300000e+00 0.0000000e+00 
6.7533333e+00 5.9700000e+00 0.0000000e+00 
6.7533333e+00 5.9900000e+00 0.0000000e+00 
6.7533333e+00 6.0100000e+00 0.0000000e+00 
6.7533333e+00 6.0300000e+00 0.0000000e+00 
6.7800000e+00 5.9700000e+00 0.0000000e+00 
6.7800000e+00 5.9900000e+00 0.0000000e+00 
6.7800000e+00 6.0100000e+00 0.0000000e+00 
6.7800000e+00 6.0300000e+00 0.0000000e+00 
6.8066667e+00 5.9700000e+00 0.0000000e+00 
6.8066667e+00 5.9900000e+00 0.0000000e+00 
6.8066667e+00 6.0100000e+00 0.0000000e+00 
6.8066667e+00 6.0300000e+00 0.0000000e+00 
6.8333333e+00 5.9700000e+00 0.0000000e+00 
6.8333333e+00 5.9900000e+00 0.0000000e+00 
6.8333333e+00 6.0100000e+00 0.0000000e+00 
6.8333333e+00 6.0300000e+00 0.0000000e+00 
6.8600000e+00 5.9700000e+00 0.0000000e+00 
6.8600000e+00 5.9900000e+00 0.0000000e+00 
6.8600000e+00 6.0100000e+00 0.0000000e+00 
6.8600000e+00 6.0300000e+00 0.0000000e+00 
6.8866667e+00 5.9700000e+00 0.0000000e+00 
6.8866667e+00 5.9900000e+00 0.0000000e+00 
6.8866667e+00 6.0100000e+00 0.0000000e+00 
6.8866667e+00 6.0300000e+00 0.0000000e+00 
6.9133333e+00 5.9700000e+00 0.0000000e+00 
6.9133333e+00 5.9900000e+00 0.0000000e+00 
6.9133333e+00 6.0100000e+00 0.0000000e+00 
6.9133333e+00 6.0300000e+00 0.0000000e+00 
6.9400000e+00 5.9700000e+00 0.0000000e+00 
6.9400000e+00 5.9900000e+00 0.0000000e+00 
6.9400000e+00 6.0100000e+00 0.0000000e+00 
6.9400000e+00 6.0300000e+00 0.0000000e+00 
6.9666667e+00 5.9700000e+00 0.0000000e+00 
6.9666667e+00 5.9900000e+00 0.0000000e+00 
6.9666667e+00 6.0100000e+00 0.0000000e+00 
6.9666667e+00 6.0300000e+00 0.0000000e+00 
6.9933333e+00 5.9700000e+00 0.0000000e+00 
6.9933333e+00 5.9900000e+00 0.0000000e+00 
6.9933333e+00 6.0100000e+00 0.0000000e+00 
6.9933333e+00 6.0300000e+00 0.0000000e+00 
7.0200000e+00 5.9700000e+00 0.0000000e+00 
7.0200000e+00 5.9900000e+00 0.0000000e+00 
[...]
POINT_DATA 604
FIELD FieldData 2
DISPLACEMENT 3 604  float
0.0000000e+00 0.0000000e+00 0.0000000e+00 
0.0000000e+00 0.0000000e+00 0.0000000e+00 
2.0487761e-04 1.2401782e-04 0.0000000e+00 
6.5065952e-05 7.9931069e-05 0.0000000e+00 
0.0000000e+00 0.0000000e+00 0.0000000e+00 
-6.5990989e-05 7.9233397e-05 0.0000000e+00 
4.1296326e-04 3.9898253e-04 0.0000000e+00 
1.3630559e-04 3.6179759e-04 0.0000000e+00 
0.0000000e+00 0.0000000e+00 0.0000000e+00 
-2.0652425e-04 1.2178197e-04 0.0000000e+00 
-1.4116639e-04 3.6006710e-04 0.0000000e+00 
6.1649126e-04 8.6896665e-04 0.0000000e+00 
-4.1884954e-04 3.9462077e-04 0.0000000e+00 
2.0073806e-04 8.2793961e-04 0.0000000e+00 
-2.1456461e-04 8.2340885e-04 0.0000000e+00 
-6.3184765e-04 8.5497695e-04 0.0000000e+00 
8.1370260e-04 1.5212775e-03 0.0000000e+00 
2.6106025e-04 1.4784739e-03 0.0000000e+00 
-2.9152132e-04 1.4710145e-03 0.0000000e+00 
-8.4614013e-04 1.4997574e-03 0.0000000e+00 
1.0033633e-03 2.3592660e-03 0.0000000e+00 
3.1548783e-04 2.3116474e-03 0.0000000e+00 
-3.7259635e-04 2.2995443e-03 0.0000000e+00 
-1.0630309e-03 2.3226538e-03 0.0000000e+00 
1.1843915e-03 3.3756384e-03 0.0000000e+00 
3.6296243e-04 3.3243592e-03 0.0000000e+00 
-4.5904547e-04 3.3078177e-03 0.0000000e+00 
-1.2837543e-03 3.3263625e-03 0.0000000e+00 
1.3557899e-03 4.5719590e-03 0.0000000e+00 
4.0190178e-04 4.5152227e-03 0.0000000e+00 
-5.5234439e-04 4.4928082e-03 0.0000000e+00 
-1.5091160e-03 4.5050652e-03 0.0000000e+00 
1.5160585e-03 5.9459859e-03 0.0000000e+00 
4.3199369e-04 5.8820585e-03 0.0000000e+00 
-6.5279518e-04 5.8523829e-03 0.0000000e+00 
-1.7405016e-03 5.8565757e-03 0.0000000e+00 
1.6645945e-03 7.4915808e-03 0.0000000e+00 
4.5181725e-04 7.4217392e-03 0.0000000e+00 
-7.6188117e-04 7.3851057e-03 0.0000000e+00 
-1.9787344e-03 7.3824515e-03 0.0000000e+00 
1.8000362e-03 9.2115211e-03 0.0000000e+00 
4.6034393e-04 9.1329205e-03 0.0000000e+00 
-8.8048629e-04 9.0877723e-03 0.0000000e+00 
-2.2246686e-03 9.0754847e-03 0.0000000e+00 
1.9217389e-03 1.1098351e-02 0.0000000e+00 
4.5669445e-04 1.1012474e-02 0.0000000e+00 
-1.0096012e-03 1.0958906e-02 0.0000000e+00 
-2.4794173e-03 1.0938398e-02 0.0000000e+00 
2.0283968e-03 1.3154851e-02 0.0000000e+00 
4.3991752e-04 1.3058858e-02 0.0000000e+00 
-1.1500249e-03 1.2995429e-02 0.0000000e+00 
-2.7436756e-03 1.2963916e-02 0.0000000e+00 
2.1195620e-03 1.5373436e-02 0.0000000e+00 
4.0921013e-04 1.5268919e-02 0.0000000e+00 
-1.3026961e-03 1.5195800e-02 0.0000000e+00 
-3.0184632e-03 1.5154800e-02 0.0000000e+00 
2.1939473e-03 1.7756936e-02 0.0000000e+00 
3.6369519e-04 1.7641087e-02 0.0000000e+00 
-1.4683113e-03 1.7556894e-02 0.0000000e+00 
-3.3043513e-03 1.7503659e-02 0.0000000e+00 
2.2512538e-03 2.0297647e-02 0.0000000e+00 
3.0267083e-04 2.0172155e-02 0.0000000e+00 
-1.6477352e-03 2.0077135e-02 0.0000000e+00 
-3.6023104e-03 2.0013275e-02 0.0000000e+00 
2.2902205e-03 2.2998432e-02 0.0000000e+00 
2.2533412e-04 2.2860523e-02 0.0000000e+00 
-1.8415616e-03 2.2753347e-02 0.0000000e+00 
-3.9127836e-03 2.2676152e-02 0.0000000e+00 
2.3106933e-03 2.5851469e-02 0.0000000e+00 
1.3108441e-04 2.5702928e-02 0.0000000e+00 
-2.0505818e-03 2.5583919e-02 0.0000000e+00 
-4.2366931e-03 2.5495091e-02 0.0000000e+00 
2.3114437e-03 2.8859648e-02 0.0000000e+00 
1.9190448e-05 2.8697739e-02 0.0000000e+00 
-2.2752883e-03 2.8565622e-02 0.0000000e+00 
-4.5743510e-03 2.8462493e-02 0.0000000e+00 
2.2924577e-03 3.2015047e-02 0.0000000e+00 
-1.1084472e-04 3.1841636e-02 0.0000000e+00 
-2.5163970e-03 3.1696806e-02 0.0000000e+00 
-4.9266287e-03 3.1581153e-02 0.0000000e+00 
2.2524998e-03 3.5320553e-02 0.0000000e+00 
-2.5966070e-04 3.5132989e-02 0.0000000e+00 
-2.7742696e-03 3.4974161e-02 0.0000000e+00 
-5.2937570e-03 3.4843392e-02 0.0000000e+00 
2.1916482e-03 3.8768099e-02 0.0000000e+00 
-4.2760578e-04 3.8568225e-02 0.0000000e+00 
-3.0495732e-03 3.8396188e-02 0.0000000e+00 
-5.6766027e-03 3.8252036e-02 0.0000000e+00 
2.1092816e-03 4.2359348e-02 0.0000000e+00 
-6.1573143e-04 4.2145692e-02 0.0000000e+00 
-3.3430637e-03 4.1959439e-02 0.0000000e+00 
-6.0751423e-03 4.1800646e-02 0.0000000e+00 
2.0045159e-03 4.6091752e-02 0.0000000e+00 
-8.2363739e-04 4.5863031e-02 0.0000000e+00 
-3.6543391e-03 4.5661616e-02 0.0000000e+00 
-6.4901173e-03 4.5486735e-02 0.0000000e+00 
1.8776690e-03 4.9958441e-02 0.0000000e+00 
-1.0520372e-03 4.9716629e-02 0.0000000e+00 
-3.9843431e-03 4.9500931e-02 0.0000000e+00 
-6.9218314e-03 4.9311851e-02 0.0000000e+00 
1.7276146e-03 5.3962348e-02 0.0000000e+00 
-1.3014268e-03 5.3704874e-02 0.0000000e+00 
-4.3331697e-03 5.3473761e-02 0.0000000e+00 
-7.3701719e-03 5.3268019e-02 0.0000000e+00 
1.5547535e-03 5.8095128e-02 0.0000000e+00 
-1.5719170e-03 5.7824178e-02 0.0000000e+00 
-4.7012529e-03 5.7578298e-02 0.0000000e+00 
-7.8358932e-03 5.7357966e-02 0.0000000e+00 
1.3580490e-03 6.2359674e-02 0.0000000e+00 
-1.8639126e-03 6.2072700e-02 0.0000000e+00 
-5.0886297e-03 6.1811047e-02 0.0000000e+00 
-8.3187158e-03 6.1573670e-02 0.0000000e+00 
1.1380716e-03 6.6747544e-02 0.0000000e+00 
-2.1774502e-03 6.6446823e-02 0.0000000e+00 
-5.4956773e-03 6.6170113e-02 0.0000000e+00 
-8.8193042e-03 6.5917851e-02 0.0000000e+00 
8.9383147e-04 7.1261615e-02 0.0000000e+00 
-2.5128633e-03 7.0944652e-02 0.0000000e+00 
-5.9223356e-03 7.0651945e-02 0.0000000e+00 
-9.3372550e-03 7.0382399e-02 0.0000000e+00 
6.2601873e-04 7.5893372e-02 0.0000000e+00 
-2.8700873e-03 7.5562515e-02 0.0000000e+00 
-6.3689054e-03 7.5254591e-02 0.0000000e+00 
-9.8731848e-03 7.4969993e-02 0.0000000e+00 
3.3369835e-04 8.0645652e-02 0.0000000e+00 
-3.2493830e-03 8.0298465e-02 0.0000000e+00 
-6.8352302e-03 7.9974448e-02 0.0000000e+00 
-1.0426569e-02 7.9672459e-02 0.0000000e+00 
1.7676830e-05 8.5509879e-02 0.0000000e+00 
-3.6505865e-03 8.5148777e-02 0.0000000e+00 
-7.3215362e-03 8.4809511e-02 0.0000000e+00 
-1.0997975e-02 8.4492429e-02 0.0000000e+00 
-3.2292105e-04 9.0488841e-02 0.0000000e+00 
-4.0738875e-03 9.0111451e-02 0.0000000e+00 
-7.8275736e-03 8.9756123e-02 0.0000000e+00 
-1.1586759e-02 8.9421670e-02 0.0000000e+00 
-6.8717778e-04 9.5573931e-02 0.0000000e+00 
-4.5190242e-03 9.5182715e-02 0.0000000e+00 
-8.3534938e-03 9.4812227e-02 0.0000000e+00 
-1.2193436e-02 9.4462755e-02 0.0000000e+00 
-1.0759495e-03 1.0076785e-01 0.0000000e+00 
-4.9860974e-03 1.0036056e-01 0.0000000e+00 
-8.8989232e-03 9.9974090e-02 0.0000000e+00 
-1.2817298e-02 9.9607408e-02 0.0000000e+00 
-1.4882592e-03 1.0606193e-01 0.0000000e+00 
-5.4746851e-03 1.0564096e-01 0.0000000e+00 
-9.4639811e-03 1.0523980e-01 0.0000000e+00 
-1.3458861e-02 1.0485818e-01 0.0000000e+00 
-1.9242142e-03 1.1145762e-01 0.0000000e+00 
-5.9852896e-03 1.1102186e-01 0.0000000e+00 
-1.0048720e-02 1.1060546e-01 0.0000000e+00 
-1.4117294e-02 1.1020814e-01 0.0000000e+00 
-2.3840631e-03 1.1695193e-01 0.0000000e+00 
-6.5168887e-03 1.1650063e-01 0.0000000e+00 
-1.0652124e-02 1.1606850e-01 0.0000000e+00 
-1.4792733e-02 1.1565443e-01 0.0000000e+00 
-2.8667651e-03 1.2253761e-01 0.0000000e+00 
-7.0694851e-03 1.2207321e-01 0.0000000e+00 
-1.1274575e-02 1.2162671e-01 0.0000000e+00 
-1.5485020e-02 1.2119828e-01 0.0000000e+00 
-3.3729906e-03 1.2821720e-01 0.0000000e+00 
-7.6430583e-03 1.2773760e-01 0.0000000e+00 
-1.1915459e-02 1.2727607e-01 0.0000000e+00 
-1.6193158e-02 1.2683128e-01 0.0000000e+00 
-3.9015416e-03 1.3398203e-01 0.0000000e+00 
-8.2369995e-03 1.3348985e-01 0.0000000e+00 
-1.2574666e-02 1.3301437e-01 0.0000000e+00 
-1.6917558e-02 1.3255576e-01 0.0000000e+00 
-4.4529768e-03 1.3983453e-01 0.0000000e+00 
-8.8511883e-03 1.3932771e-01 0.0000000e+00 
-1.3251563e-02 1.3883776e-01 0.0000000e+00 
-1.7657092e-02 1.3836333e-01 0.0000000e+00 
-5.0259746e-03 1.4576605e-01 0.0000000e+00 
-9.4849681e-03 1.4524725e-01 0.0000000e+00 
-1.3945996e-02 1.4474397e-01 0.0000000e+00 
-1.8412097e-02 1.4425632e-01 0.0000000e+00 
-5.6210285e-03 1.5177897e-01 0.0000000e+00 
-1.0138160e-02 1.5124621e-01 0.0000000e+00 
-1.4657265e-02 1.5072912e-01 0.0000000e+00 
-1.9181356e-02 1.5022631e-01 0.0000000e+00 
-6.2367508e-03 1.5786471e-01 0.0000000e+00 
-1.0810035e-02 1.5732065e-01 0.0000000e+00 
-1.5385160e-02 1.5679092e-01 0.0000000e+00 
-1.9965177e-02 1.5627558e-01 0.0000000e+00 
-6.8735665e-03 1.6402555e-01 0.0000000e+00 
-1.1500358e-02 1.6346829e-01 0.0000000e+00 
-1.6128919e-02 1.6292549e-01 0.0000000e+00 
-2.0762266e-02 1.6239575e-01 0.0000000e+00 
-7.5300303e-03 1.7025298e-01 0.0000000e+00 
-1.2208339e-02 1.6968520e-01 0.0000000e+00 
-1.6888280e-02 1.6913054e-01 0.0000000e+00 
-2.1572904e-02 1.6858904e-01 0.0000000e+00 
-8.2064999e-03 1.7654922e-01 0.0000000e+00 
-1.2933691e-02 1.7596908e-01 0.0000000e+00 
-1.7662429e-02 1.7540218e-01 0.0000000e+00 
-2.2395727e-02 1.7484712e-01 0.0000000e+00 
-8.9014829e-03 1.8290588e-01 0.0000000e+00 
-1.3675568e-02 1.8231604e-01 0.0000000e+00 
-1.8451059e-02 1.8173813e-01 0.0000000e+00 
-2.3230990e-02 1.8117216e-01 0.0000000e+00 
-9.6153137e-03 1.8932506e-01 0.0000000e+00 
-1.4433625e-02 1.8872380e-01 0.0000000e+00 
-1.9253279e-02 1.8813449e-01 0.0000000e+00 
-2.4077315e-02 1.8755587e-01 0.0000000e+00 
-1.0346503e-02 1.9579845e-01 0.0000000e+00 
-1.5206903e-02 1.9518835e-01 0.0000000e+00 
-2.0068787e-02 1.9458916e-01 0.0000000e+00 
-2.4934984e-02 1.9400043e-01 0.0000000e+00 
-1.1094666e-02 2.0232706e-01 0.0000000e+00 
-1.5995416e-02 2.0170737e-01 0.0000000e+00 
-2.0897142e-02 2.0109815e-01 0.0000000e+00 
-2.5802648e-02 2.0049892e-01 0.0000000e+00 
-1.1859518e-02 2.0890786e-01 0.0000000e+00 
-1.6797805e-02 2.0827825e-01 0.0000000e+00 
-2.1736993e-02 2.0765888e-01 0.0000000e+00 
-2.6680083e-02 2.0704847e-01 0.0000000e+00 
-1.2639670e-02 2.1553412e-01 0.0000000e+00 
-1.7613584e-02 2.1489708e-01 0.0000000e+00 
-2.2588343e-02 2.1426908e-01 0.0000000e+00 
-2.7566905e-02 2.1365005e-01 0.0000000e+00 
-1.3435302e-02 2.2220778e-01 0.0000000e+00 
-1.8442383e-02 2.2156173e-01 0.0000000e+00 
-2.3450188e-02 2.2092481e-01 0.0000000e+00 
-2.8461627e-02 2.2029559e-01 0.0000000e+00 
-1.4244901e-02 2.2892096e-01 0.0000000e+00 
-1.9283205e-02 2.2826849e-01 0.0000000e+00 
-2.4322103e-02 2.2762389e-01 0.0000000e+00 
-2.9364503e-02 2.2698712e-01 0.0000000e+00 
-1.5068560e-02 2.3567552e-01 0.0000000e+00 
-2.0135611e-02 2.3501509e-01 0.0000000e+00 
-2.5203137e-02 2.3436262e-01 0.0000000e+00 
-3.0273990e-02 2.3371671e-01 0.0000000e+00 
-1.5904724e-02 2.4246378e-01 0.0000000e+00 
-2.0998618e-02 2.4179794e-01 0.0000000e+00 
-2.6092866e-02 2.4113884e-01 0.0000000e+00 
-3.1190308e-02 2.4048642e-01 0.0000000e+00 
-1.6753448e-02 2.4928754e-01 0.0000000e+00 
-2.1871774e-02 2.4861481e-01 0.0000000e+00 
-2.6990332e-02 2.4794890e-01 0.0000000e+00 
-3.2111902e-02 2.4728843e-01 0.0000000e+00 
-1.7613190e-02 2.5613933e-01 0.0000000e+00 
-2.2754089e-02 2.5546220e-01 0.0000000e+00 
-2.7895107e-02 2.5479071e-01 0.0000000e+00 
-3.3039003e-02 2.5412480e-01 0.0000000e+00 
-1.8483970e-02 2.6302090e-01 0.0000000e+00 
-2.3645104e-02 2.6233796e-01 0.0000000e+00 
-2.8806234e-02 2.6166073e-01 0.0000000e+00 
-3.3970056e-02 2.6098785e-01 0.0000000e+00 
-1.9364266e-02 2.6992501e-01 0.0000000e+00 
-2.4543832e-02 2.6923868e-01 0.0000000e+00 
-2.9723290e-02 2.6855692e-01 0.0000000e+00 
-3.4905305e-02 2.6787966e-01 0.0000000e+00 
-2.0254070e-02 2.7685338e-01 0.0000000e+00 
-2.5449815e-02 2.7616229e-01 0.0000000e+00 
-3.0645329e-02 2.7547584e-01 0.0000000e+00 
-3.5843206e-02 2.7479270e-01 0.0000000e+00 
-2.1151891e-02 2.8379900e-01 0.0000000e+00 
-2.6362078e-02 2.8310551e-01 0.0000000e+00 
-3.1571933e-02 2.8241556e-01 0.0000000e+00 
-3.6784016e-02 2.8172908e-01 0.0000000e+00 
-2.2057736e-02 2.9076356e-01 0.0000000e+00 
-2.7280157e-02 2.9006638e-01 0.0000000e+00 
-3.2502155e-02 2.8937272e-01 0.0000000e+00 
-3.7726250e-02 2.8868144e-01 0.0000000e+00 
-2.2970179e-02 2.9774026e-01 0.0000000e+00 
-2.8203046e-02 2.9704160e-01 0.0000000e+00 
-3.3435625e-02 2.9634563e-01 0.0000000e+00 
-3.8670219e-02 2.9565191e-01 0.0000000e+00 
-2.3888669e-02 3.0472993e-01 0.0000000e+00 
-2.9130596e-02 3.0402927e-01 0.0000000e+00 
-3.4371848e-02 3.0333094e-01 0.0000000e+00 
-3.9614584e-02 3.0263451e-01 0.0000000e+00 
-2.4812776e-02 3.1173022e-01 0.0000000e+00 
-3.0061567e-02 3.1102736e-01 0.0000000e+00 
-3.5309593e-02 3.1032663e-01 0.0000000e+00 
-4.0559165e-02 3.0962697e-01 0.0000000e+00 
-2.5741263e-02 3.1873586e-01 0.0000000e+00 
-3.0995444e-02 3.1803286e-01 0.0000000e+00 
-3.6248853e-02 3.1733106e-01 0.0000000e+00 
-4.1503717e-02 3.1663042e-01 0.0000000e+00 
-2.6674126e-02 3.2574856e-01 0.0000000e+00 
-3.1931867e-02 3.2504419e-01 0.0000000e+00 
-3.7188729e-02 3.2434111e-01 0.0000000e+00 
-4.2446852e-02 3.2363816e-01 0.0000000e+00 
-2.7610088e-02 3.3276225e-01 0.0000000e+00 
-3.2869952e-02 3.3205860e-01 0.0000000e+00 
-3.8128871e-02 3.3135528e-01 0.0000000e+00 
-4.3388944e-02 3.3065230e-01 0.0000000e+00 
-2.8549112e-02 3.3977862e-01 0.0000000e+00 
-3.3809319e-02 3.3907447e-01 0.0000000e+00 
-3.9068485e-02 3.3837075e-01 0.0000000e+00 
-4.4328617e-02 3.3766636e-01 0.0000000e+00 
-2.9489942e-02 3.4679186e-01 0.0000000e+00 
-3.4749150e-02 3.4608922e-01 0.0000000e+00 
-4.0007263e-02 3.4538611e-01 0.0000000e+00 
-4.5266246e-02 3.4468253e-01 0.0000000e+00 
-3.0432552e-02 3.5380368e-01 0.0000000e+00 
-3.5689095e-02 3.5310136e-01 0.0000000e+00 
-4.0944459e-02 3.5239867e-01 0.0000000e+00 
-4.6200506e-02 3.5169456e-01 0.0000000e+00 
-3.1375746e-02 3.6080855e-01 0.0000000e+00 
-3.6628383e-02 3.6010847e-01 0.0000000e+00 
-4.1879796e-02 3.5940716e-01 0.0000000e+00 
-4.7131805e-02 3.5870466e-01 0.0000000e+00 
-3.2319513e-02 3.6780818e-01 0.0000000e+00 
-3.7566694e-02 3.6710918e-01 0.0000000e+00 
-4.2812578e-02 3.6640907e-01 0.0000000e+00 
-4.8058875e-02 3.6570684e-01 0.0000000e+00 
-3.3262718e-02 3.7479734e-01 0.0000000e+00 
-3.8503309e-02 3.7410125e-01 0.0000000e+00 
-4.3742566e-02 3.7340323e-01 0.0000000e+00 
-4.8982159e-02 3.7270334e-01 0.0000000e+00 
-3.4205369e-02 3.8177776e-01 0.0000000e+00 
-3.9437942e-02 3.8108343e-01 0.0000000e+00 
-4.4669117e-02 3.8038730e-01 0.0000000e+00 
-4.9900448e-02 3.7968843e-01 0.0000000e+00 
-3.5146398e-02 3.8874449e-01 0.0000000e+00 
-4.0369927e-02 3.8805366e-01 0.0000000e+00 
-4.5592028e-02 3.8736027e-01 0.0000000e+00 
-5.0814216e-02 3.8666439e-01 0.0000000e+00 
-3.6085859e-02 3.9569929e-01 0.0000000e+00 
-4.1299007e-02 3.9501086e-01 0.0000000e+00 
-4.6510695e-02 3.9431994e-01 0.0000000e+00 
-5.1722344e-02 3.9362577e-01 0.0000000e+00 
-3.7022773e-02 4.0263745e-01 0.0000000e+00 
-4.2224530e-02 4.0195302e-01 0.0000000e+00 
-4.7424978e-02 4.0126556e-01 0.0000000e+00 
-5.2625369e-02 4.0057489e-01 0.0000000e+00 
-3.7956799e-02 4.0956013e-01 0.0000000e+00 
-4.3146504e-02 4.0887916e-01 0.0000000e+00 
-4.8334666e-02 4.0819500e-01 0.0000000e+00 
-5.3522351e-02 4.0750747e-01 0.0000000e+00 
-3.8887717e-02 4.1646608e-01 0.0000000e+00 
-4.4064125e-02 4.1578830e-01 0.0000000e+00 
-4.9238970e-02 4.1510727e-01 0.0000000e+00 
-5.4413388e-02 4.1442234e-01 0.0000000e+00 
-3.9814728e-02 4.2335196e-01 0.0000000e+00 
-4.4977172e-02 4.2267878e-01 0.0000000e+00 
-5.0138098e-02 4.2200177e-01 0.0000000e+00 
-5.5298584e-02 4.2132109e-01 0.0000000e+00 
-4.0737975e-02 4.3021965e-01 0.0000000e+00 
-4.5885542e-02 4.2955001e-01 0.0000000e+00 
-5.1031571e-02 4.2887672e-01 0.0000000e+00 
-5.6177001e-02 4.2819907e-01 0.0000000e+00 
-4.1656661e-02 4.3706528e-01 0.0000000e+00 
-4.6788762e-02 4.3640058e-01 0.0000000e+00 
-5.1919321e-02 4.3573164e-01 0.0000000e+00 
-5.7049264e-02 4.3505866e-01 0.0000000e+00 
-4.2570934e-02 4.4389075e-01 0.0000000e+00 
-4.7686730e-02 4.4322992e-01 0.0000000e+00 
-5.2800982e-02 4.4256505e-01 0.0000000e+00 
-5.7914465e-02 4.4189550e-01 0.0000000e+00 
-4.3480026e-02 4.5069245e-01 0.0000000e+00 
-4.8579050e-02 4.5003682e-01 0.0000000e+00 
-5.3676533e-02 4.4937661e-01 0.0000000e+00 
-5.8773244e-02 4.4871205e-01 0.0000000e+00 
-4.4384121e-02 4.5747234e-01 0.0000000e+00 
-4.9465658e-02 4.5682086e-01 0.0000000e+00 
-5.4545664e-02 4.5616500e-01 0.0000000e+00 
-5.9624752e-02 4.5550421e-01 0.0000000e+00 
-4.5282512e-02 4.6422709e-01 0.0000000e+00 
-5.0346214e-02 4.6358098e-01 0.0000000e+00 
-5.5408393e-02 4.6293003e-01 0.0000000e+00 
-6.0469665e-02 4.6227447e-01 0.0000000e+00 
-4.6175417e-02 4.7095870e-01 0.0000000e+00 
-5.1220690e-02 4.7031694e-01 0.0000000e+00 
-5.6264467e-02 4.6967055e-01 0.0000000e+00 
-6.1307191e-02 4.6901903e-01 0.0000000e+00 
-4.7062185e-02 4.7766411e-01 0.0000000e+00 
-5.2088804e-02 4.7702785e-01 0.0000000e+00 
-5.7113938e-02 4.7638653e-01 0.0000000e+00 
-6.2138045e-02 4.7574043e-01 0.0000000e+00 
-4.7943069e-02 4.8434538e-01 0.0000000e+00 
-5.2950563e-02 4.8371360e-01 0.0000000e+00 
-5.7956610e-02 4.8307700e-01 0.0000000e+00 
-6.2961489e-02 4.8243512e-01 0.0000000e+00 
-4.8817472e-02 4.9099972e-01 0.0000000e+00 
-5.3805738e-02 4.9037349e-01 0.0000000e+00 
-5.8792570e-02 4.8974205e-01 0.0000000e+00 
-6.3778269e-02 4.8910571e-01 0.0000000e+00 
-4.9685704e-02 4.9762924e-01 0.0000000e+00 
-5.4654367e-02 4.9700757e-01 0.0000000e+00 
-5.9621661e-02 4.9638090e-01 0.0000000e+00 
-6.4587723e-02 4.9574893e-01 0.0000000e+00 
-5.0547237e-02 5.0423139e-01 0.0000000e+00 
-5.5496240e-02 5.0361524e-01 0.0000000e+00 
-6.0444022e-02 5.0299387e-01 0.0000000e+00 
-6.5390642e-02 5.0236741e-01 0.0000000e+00 
-5.1402099e-02 5.1080787e-01 0.0000000e+00 
-5.6331611e-02 5.1019666e-01 0.0000000e+00 
-6.1259788e-02 5.0958029e-01 0.0000000e+00 
-6.6186529e-02 5.0895887e-01 0.0000000e+00 
-5.2250372e-02 5.1735867e-01 0.0000000e+00 
-5.7160134e-02 5.1675200e-01 0.0000000e+00 
-6.2068635e-02 5.1614029e-01 0.0000000e+00 
-6.6975744e-02 5.1552334e-01 0.0000000e+00 
-5.3091665e-02 5.2388226e-01 0.0000000e+00 
-5.7981924e-02 5.2328095e-01 0.0000000e+00 
-6.2870975e-02 5.2267438e-01 0.0000000e+00 
-6.7758720e-02 5.2206290e-01 0.0000000e+00 
-5.3926400e-02 5.3038097e-01 0.0000000e+00 
-5.8797143e-02 5.2978405e-01 0.0000000e+00 
-6.3666758e-02 5.2918217e-01 0.0000000e+00 
-6.8534951e-02 5.2857510e-01 0.0000000e+00 
-5.4754174e-02 5.3685287e-01 0.0000000e+00 
-5.9605728e-02 5.3626117e-01 0.0000000e+00 
-6.4456169e-02 5.3566428e-01 0.0000000e+00 
-6.9305268e-02 5.3506257e-01 0.0000000e+00 
-5.5575424e-02 5.4330034e-01 0.0000000e+00 
-6.0407842e-02 5.4271288e-01 0.0000000e+00 
-6.5239240e-02 5.4212055e-01 0.0000000e+00 
-7.0069185e-02 5.4152316e-01 0.0000000e+00 
-5.6389763e-02 5.4972167e-01 0.0000000e+00 
-6.1203477e-02 5.4913922e-01 0.0000000e+00 
-6.6016184e-02 5.4855170e-01 0.0000000e+00 
-7.0827532e-02 5.4795953e-01 0.0000000e+00 
-5.7197664e-02 5.5611928e-01 0.0000000e+00 
-6.1992821e-02 5.5554088e-01 0.0000000e+00 
-6.6787074e-02 5.5495775e-01 0.0000000e+00 
-7.1579862e-02 5.5436975e-01 0.0000000e+00 
-5.7998772e-02 5.6249167e-01 0.0000000e+00 
-6.2775903e-02 5.6191803e-01 0.0000000e+00 
-6.7552142e-02 5.6133950e-01 0.0000000e+00 
-7.2327018e-02 5.6075651e-01 0.0000000e+00 
-5.8793593e-02 5.6884131e-01 0.0000000e+00 
-6.3552935e-02 5.6827148e-01 0.0000000e+00 
-6.8311494e-02 5.6769713e-01 0.0000000e+00 
-7.3068591e-02 5.6711813e-01 0.0000000e+00 
-5.9581805e-02 5.7516688e-01 0.0000000e+00 
-6.4323979e-02 5.7460154e-01 0.0000000e+00 
-6.9065380e-02 5.7403153e-01 0.0000000e+00 
-7.3805431e-02 5.7345730e-01 0.0000000e+00 
-6.0363944e-02 5.8147092e-01 0.0000000e+00 
-6.5089270e-02 5.8090911e-01 0.0000000e+00 
-6.9813940e-02 5.8034302e-01 0.0000000e+00 
-7.4537163e-02 5.7977257e-01 0.0000000e+00 
-6.1139716e-02 5.8775226e-01 0.0000000e+00 
-6.5848901e-02 5.8719462e-01 0.0000000e+00 
-7.0557433e-02 5.8663259e-01 0.0000000e+00 
-7.5264636e-02 5.8606661e-01 0.0000000e+00 
-6.1909699e-02 5.9401349e-01 0.0000000e+00 
-6.6603120e-02 5.9345909e-01 0.0000000e+00 
-7.1296020e-02 5.9290067e-01 0.0000000e+00 
-7.5987527e-02 5.9233822e-01 0.0000000e+00 
-6.2673647e-02 6.0025359e-01 0.0000000e+00 
-6.7352021e-02 5.9970300e-01 0.0000000e+00 
-7.2029983e-02 5.9914839e-01 0.0000000e+00 
-7.6706680e-02 5.9859005e-01 0.0000000e+00 
-6.3431913e-02 6.0647482e-01 0.0000000e+00 
-6.8096031e-02 6.0592745e-01 0.0000000e+00 
-7.2759651e-02 6.0537628e-01 0.0000000e+00 
-7.7421895e-02 6.0482156e-01 0.0000000e+00 
-6.4184826e-02 6.1267801e-01 0.0000000e+00 
-6.8835103e-02 6.1213342e-01 0.0000000e+00 