# vtk DataFile Version 4.0
vtk output
ASCII
DATASET UNSTRUCTURED_GRID
POINTS 604 float
5.5000000e+00 5.9700000e+00 0.0000000e+00 
5.5000000e+00 5.9900000e+00 0.0000000e+00 
5.5266667e+00 5.9700000e+00 0.0000000e+00 
5.5266667e+00 5.9900000e+00 0.0000000e+00 
5.5000000e+00 6.0100000e+00 0.0000000e+00 
5.5266667e+00 6.0100000e+00 0.0000000e+00 
5.5533333e+00 5.9700000e+00 0.0000000e+00 
5.5533333e+00 5.9900000e+00 0.0000000e+00 
5.5000000e+00 6.0300000e+00 0.0000000e+00 
5.5266667e+00 6.0300000e+00 0.0000000e+00 
5.5533333e+00 6.0100000e+00 0.0000000e+00 
5.5800000e+00 5.9700000e+00 0.0000000e+00 
5.5533333e+00 6.0300000e+00 0.0000000e+00 
5.5800000e+00 5.9900000e+00 0.0000000e+00 
5.5800000e+00 6.0100000e+00 0.0000000e+00 
5.5800000e+00 6.0300000e+00 0.0000000e+00 
5.6066667e+00 5.9700000e+00 0.0000000e+00 
5.6066667e+00 5.9900000e+00 0.0000000e+00 
5.6066667e+00 6.0100000e+00 0.0000000e+00 
5.6066667e+00 6.0300000e+00 0.0000000e+00 
5.6333333e+00 5.9700000e+00 0.0000000e+00 
5.6333333e+00 5.9900000e+00 0.0000000e+00 
5.6333333e+00 6.0100000e+00 0.0000000e+00 
5.6333333e+00 6.0300000e+00 0.0000000e+00 
5.6600000e+00 5.9700000e+00 0.0000000e+00 
5.6600000e+00 5.9900000e+00 0.0000000e+00 
5.6600000e+00 6.0100000e+00 0.0000000e+00 
5.6600000e+00 6.0300000e+00 0.0000000e+00 
5.6866667e+00 5.9700000e+00 0.0000000e+00 
5.6866667e+00 5.9900000e+00 0.0000000e+00 
5.6866667e+00 6.0100000e+00 0.0000000e+00 
5.6866667e+00 6.0300000e+00 0.0000000e+00 
5.7133333e+00 5.9700000e+00 0.0000000e+00 
5.7133333e+00 5.9900000e+00 0.0000000e+00 
5.7133333e+00 6.0100000e+00 0.0000000e+00 
5.7133333e+00 6.0300000e+00 0.0000000e+00 
5.7400000e+00 5.9700000e+00 0.0000000e+00 
5.7400000e+00 5.9900000e+00 0.0000000e+00 
5.7400000e+00 6.0100000e+00 0.0000000e+00 
5.7400000e+00 6.0300000e+00 0.0000000e+00 
5.7666667e+00 5.9700000e+00 0.0000000e+00 
5.7666667e+00 5.9900000e+00 0.0000000e+00 
5.7666667e+00 6.0100000e+00 0.0000000e+00 
5.7666667e+00 6.0300000e+00 0.0000000e+00 
5.7933333e+00 5.9700000e+00 0.0000000e+00 
5.7933333e+00 5.9900000e+00 0.0000000e+00 
5.7933333e+00 6.0100000e+00 0.0000000e+00 
5.7933333e+00 6.0300000e+00 0.0000000e+00 
5.8200000e+00 5.9700000e+00 0.0000000e+00 
5.8200000e+00 5.9900000e+00 0.0000000e+00 
5.8200000e+00 6.0100000e+00 0.0000000e+00 
5.8200000e+00 6.0300000e+00 0.0000000e+00 
5.8466667e+00 5.9700000e+00 0.0000000e+00 
5.8466667e+00 5.9900000e+00 0.0000000e+00 
5.8466667e+00 6.0100000e+00 0.0000000e+00 
5.8466667e+00 6.0300000e+00 0.0000000e+00 
5.8733333e+00 5.9700000e+00 0.0000000e+00 
5.8733333e+00 5.9900000e+00 0.0000000e+00 
5.8733333e+00 6.0100000e+00 0.0000000e+00 
5.8733333e+00 6.0300000e+00 0.0000000e+00 
5.9000000e+00 5.9700000e+00 0.0000000e+00 
5.9000000e+00 5.9900000e+00 0.0000000e+00 
5.9000000e+00 6.0100000e+00 0.0000000e+00 
5.9000000e+00 6.0300000e+00 0.0000000e+00 
5.9266667e+00 5.9700000e+00 0.0000000e+00 
5.9266667e+00 5.9900000e+00 0.0000000e+00 
5.9266667e+00 6.0100000e+00 0.0000000e+00 
5.9266667e+00 6.0300000e+00 0.0000000e+00 
5.9533333e+00 5.9700000e+00 0.0000000e+00 
5.9533333e+00 5.9900000e+00 0.0000000e+00 
5.9533333e+00 6.0100000e+00 0.0000000e+00 
5.9533333e+00 6.0300000e+00 0.0000000e+00 
5.9800000e+00 5.9700000e+00 0.0000000e+00 
5.9800000e+00 5.9900000e+00 0.0000000e+00 
5.9800000e+00 6.0100000e+00 0.0000000e+00 
5.9800000e+00 6.0300000e+00 0.0000000e+00 
6.0066667e+00 5.9700000e+00 0.0000000e+00 
6.0066667e+00 5.9900000e+00 0.0000000e+00 
6.0066667e+00 6.0100000e+00 0.0000000e+00 
6.0066667e+00 6.0300000e+00 0.0000000e+00 
6.0333333e+00 5.9700000e+00 0.0000000e+00 
6.0333333e+00 5.9900000e+00 0.0000000e+00 
6.0333333e+00 6.0100000e+00 0.0000000e+00 
6.0333333e+00 6.0300000e+00 0.0000000e+00 
6.0600000e+00 5.9700000e+00 0.0000000e+00 
6.0600000e+00 5.9900000e+00 0.0000000e+00 
6.0600000e+00 6.0100000e+00 0.0000000e+00 
6.0600000e+00 6.0300000e+00 0.0000000e+00 
6.0866667e+00 5.9700000e+00 0.0000000e+00 
6.0866667e+00 5.9900000e+00 0.0000000e+00 
6.0866667e+00 6.0100000e+00 0.0000000e+00 
6.0866667e+00 6.0300000e+00 0.0000000e+00 
6.1133333e+00 5.9700000e+00 0.0000000e+00 
6.1133333e+00 5.9900000e+00 0.0000000e+00 
6.1133333e+00 6.0100000e+00 0.0000000e+00 
6.1133333e+00 6.0300000e+00 0.0000000e+00 
6.1400000e+00 5.9700000e+00 0.0000000e+00 
6.1400000e+00 5.9900000e+00 0.0000000e+00 
6.1400000e+00 6.0100000e+00 0.0000000e+00 
6.1400000e+00 6.0300000e+00 0.0000000e+00 
6.1666667e+00 5.9700000e+00 0.0000000e+00 
6.1666667e+00 5.9900000e+00 0.0000000e+00 
6.1666667e+00 6.0100000e+00 0.0000000e+00 
6.1666667e+00 6.0300000e+00 0.0000000e+00 
6.1933333e+00 5.9700000e+00 0.0000000e+00 
6.1933333e+00 5.9900000e+00 0.0000000e+00 
6.1933333e+00 6.0100000e+00 0.0000000e+00 
6.1933333e+00 6.0300000e+00 0.0000000e+00 
6.2200000e+00 5.9700000e+00 0.0000000e+00 
6.2200000e+00 5.9900000e+00 0.0000000e+00 
6.2200000e+00 6.0100000e+00 0.0000000e+00 
6.2200000e+00 6.0300000e+00 0.0000000e+00 
6.2466667e+00 5.9700000e+00 0.0000000e+00 
6.2466667e+00 5.9900000e+00 0.0000000e+00 
6.2466667e+00 6.0100000e+00 0.0000000e+00 
6.2466667e+00 6.0300000e+00 0.0000000e+00 
6.2733333e+00 5.9700000e+00 0.0000000e+00 
6.2733333e+00 5.9900000e+00 0.0000000e+00 
6.2733333e+00 6.0100000e+00 0.0000000e+00 
6.2733333e+00 6.0300000e+00 0.0000000e+00 
6.3000000e+00 5.9700000e+00 0.0000000e+00 
6.3000000e+00 5.9900000e+00 0.0000000e+00 
6.3000000e+00 6.0100000e+00 0.0000000e+00 
6.3000000e+00 6.0300000e+00 0.0000000e+00 
6.3266667e+00 5.9700000e+00 0.0000000e+00 
6.3266667e+00 5.9900000e+00 0.0000000e+00 
6.3266667e+00 6.0100000e+00 0.0000000e+00 
6.3266667e+00 6.0300000e+00 0.0000000e+00 
6.3533333e+00 5.9700000e+00 0.0000000e+00 
6.3533333e+00 5.9900000e+00 0.0000000e+00 
6.3533333e+00 6.0100000e+00 0.0000000e+00 
6.3533333e+00 6.0300000e+00 0.0000000e+00 
6.3800000e+00 5.9700000e+00 0.0000000e+00 
6.3800000e+00 5.9900000e+00 0.0000000e+00 
6.3800000e+00 6.0100000e+00 0.0000000e+00 
6.3800000e+00 6.0300000e+00 0.0000000e+00 
6.4066667e+00 5.9700000e+00 0.0000000e+00 
6.4066667e+00 5.9900000e+00 0.0000000e+00 
6.4066667e+00 6.0100000e+00 0.0000000e+00 
6.4066667e+00 6.0300000e+00 0.0000000e+00 
6.4333333e+00 5.9700000e+00 0.0000000e+00 
6.4333333e+00 5.9900000e+00 0.0000000e+00 
6.4333333e+00 6.0100000e+00 0.0000000e+00 
6.4333333e+00 6.0300000e+00 0.0000000e+00 
6.4600000e+00 5.9700000e+00 0.0000000e+00 
6.4600000e+00 5.9900000e+00 0.0000000e+00 
6.4600000e+00 6.0100000e+00 0.0000000e+00 
6.4600000e+00 6.0300000e+00 0.0000000e+00 
6.4866667e+00 5.9700000e+00 0.0000000e+00 
6.4866667e+00 5.9900000e+00 0.0000000e+00 
6.4866667e+00 6.0100000e+00 0.0000000e+00 
6.4866667e+00 6.0300000e+00 0.0000000e+00 
6.5133333e+00 5.9700000e+00 0.0000000e+00 
6.5133333e+00 5.9900000e+00 0.0000000e+00 
6.5133333e+00 6.0100000e+00 0.0000000e+00 
6.5133333e+00 6.0300000e+00 0.0000000e+00 
6.5400000e+00 5.9700000e+00 0.0000000e+00 
6.5400000e+00 5.9900000e+00 0.0000000e+00 
6.5400000e+00 6.0100000e+00 0.0000000e+00 
6.5400000e+00 6.0300000e+00 0.0000000e+00 
6.5666667e+00 5.9700000e+00 0.0000000e+00 
6.5666667e+00 5.9900000e+00 0.0000000e+00 
6.5666667e+00 6.0100000e+00 0.0000000e+00 
6.5666667e+00 6.0300000e+00 0.0000000e+00 
6.5933333e+00 5.9700000e+00 0.0000000e+00 
6.5933333e+00 5.9900000e+00 0.0000000e+00 
6.5933333e+00 6.0100000e+00 0.0000000e+00 
6.5933333e+00 6.0300000e+00 0.0000000e+00 
6.6200000e+00 5.9700000e+00 0.0000000e+00 
6.6200000e+00 5.9900000e+00 0.0000000e+00 
6.6200000e+00 6.0100000e+00 0.0000000e+00 
6.6200000e+00 6.0300000e+00 0.0000000e+00 
6.6466667e+00 5.9700000e+00 0.0000000e+00 
6.6466667e+00 5.9900000e+00 0.0000000e+00 
6.6466667e+00 6.0100000e+00 0.0000000e+00 
6.6466667e+00 6.0300000e+00 0.0000000e+00 
6.6733333e+00 5.9700000e+00 0.0000000e+00 
6.6733333e+00 5.9900000e+00 0.0000000e+00 
6.6733333e+00 6.0100000e+00 0.0000000e+00 
6.6733333e+00 6.0300000e+00 0.0000000e+00 
6.7000000e+00 5.9700000e+00 0.0000000e+00 
6.7000000e+00 5.9900000e+00 0.0000000e+00 
6.7000000e+00 6.0100000e+00 0.0000000e+00 
6.7000000e+00 6.0300000e+00 0.0000000e+00 
6.7266667e+00 5.9700000e+00 0.0000000e+00 
6.7266667e+00 5.9900000e+00 0.0000000e+00 
6.7266667e+00 6.0100000e+00 0.0000000e+00 
6.7266667e+00 6.0300000e+00 0.0000000e+00 
6.7533333e+00 5.9700000e+00 0.0000000e+00 
6.7533333e+00 5.9900000e+00 0.0000000e+00 
6.7533333e+00 6.0100000e+00 0.0000000e+00 
6.7533333e+00 6.0300000e+00 0.0000000e+00 
6.7800000e+00 5.9700000e+00 0.0000000e+00 
6.7800000e+00 5.9900000e+00 0.0000000e+00 
6.7800000e+00 6.0100000e+00 0.0000000e+00 
6.7800000e+00 6.0300000e+00 0.0000000e+00 
6.8066667e+00 5.9700000e+00 0.0000000e+00 
6.8066667e+00 5.9900000e+00 0.0000000e+00 
6.8066667e+00 6.0100000e+00 0.0000000e+00 
6.8066667e+00 6.0300000e+00 0.0000000e+00 
6.8333333e+00 5.9700000e+00 0.0000000e+00 
6.8333333e+00 5.9900000e+00 0.0000000e+00 
6.8333333e+00 6.0100000e+00 0.0000000e+00 
6.8333333e+00 6.0300000e+00 0.0000000e+00 
6.8600000e+00 5.9700000e+00 0.0000000e+00 
6.8600000e+00 5.9900000e+00 0.0000000e+00 
6.8600000e+00 6.0100000e+00 0.0000000e+00 
6.8600000e+00 6.0300000e+00 0.0000000e+00 
6.8866667e+00 5.9700000e+00 0.0000000e+00 
6.8866667e+00 5.9900000e+00 0.0000000e+00 
6.8866667e+00 6.0100000e+00 0.0000000e+00 
6.8866667e+00 6.0300000e+00 0.0000000e+00 
6.9133333e+00 5.9700000e+00 0.0000000e+00 
6.9133333e+00 5.9900000e+00 0.0000000e+00 
6.9133333e+00 6.0100000e+00 0.0000000e+00 
6.9133333e+00 6.0300000e+00 0.0000000e+00 
6.9400000e+00 5.9700000e+00 0.0000000e+00 
6.9400000e+00 5.9900000e+00 0.0000000e+00 
6.9400000e+00 6.0100000e+00 0.0000000e+00 
6.9400000e+00 6.0300000e+00 0.0000000e+00 
6.9666667e+00 5.9700000e+00 0.0000000e+00 
6.9666667e+00 5.9900000e+00 0.0000000e+00 
6.9666667e+00 6.0100000e+00 0.0000000e+00 
6.9666667e+00 6.0300000e+00 0.0000000e+00 
6.9933333e+00 5.9700000e+00 0.0000000e+00 
6.9933333e+00 5.9900000e+00 0.0000000e+00 
6.9933333e+00 6.0100000e+00 0.0000000e+00 
6.9933333e+00 6.0300000e+00 0.0000000e+00 
7.0200000e+00 5.9700000e+00 0.0000000e+00 
7.0200000e+00 5.9900000e+00 0.0000000e+00 
[...]
POINT_DATA 604
FIELD FieldData 2
DISPLACEMENT 3 604  float
0.0000000e+00 0.0000000e+00 0.0000000e+00 
0.0000000e+00 0.0000000e+00 0.0000000e+00 
1.8696409e-04 1.1437897e-04 0.0000000e+00 
5.9284981e-05 7.4347289e-05 0.0000000e+00 
0.0000000e+00 0.0000000e+00 0.0000000e+00 
-5.9783847e-05 7.3740768e-05 0.0000000e+00 
3.7555966e-04 3.6556247e-04 0.0000000e+00 
1.2406938e-04 3.3212137e-04 0.0000000e+00 
0.0000000e+00 0.0000000e+00 0.0000000e+00 
-1.8807531e-04 1.1240597e-04 0.0000000e+00 
-1.2756383e-04 3.3069889e-04 0.0000000e+00 
5.5899083e-04 7.9236846e-04 0.0000000e+00 
-3.7990937e-04 3.6199946e-04 0.0000000e+00 
1.8245549e-04 7.5593833e-04 0.0000000e+00 
-1.9305907e-04 7.5221102e-04 0.0000000e+00 
-5.7084796e-04 7.8079146e-04 0.0000000e+00 
7.3582911e-04 1.3824064e-03 0.0000000e+00 
2.3707481e-04 1.3448545e-03 0.0000000e+00 
-2.6100045e-04 1.3388013e-03 0.0000000e+00 
-7.6135214e-04 1.3649587e-03 0.0000000e+00 
9.0516918e-04 2.1373398e-03 0.0000000e+00 
2.8648282e-04 2.0961394e-03 0.0000000e+00 
-3.3175484e-04 2.0863443e-03 0.0000000e+00 
-9.5249496e-04 2.1076309e-03 0.0000000e+00 
1.0662353e-03 3.0497868e-03 0.0000000e+00 
3.2989605e-04 3.0060024e-03 0.0000000e+00 
-4.0629835e-04 2.9927640e-03 0.0000000e+00 
-1.1452666e-03 3.0103189e-03 0.0000000e+00 
1.2183548e-03 4.1199280e-03 0.0000000e+00 
3.6610959e-04 4.0721159e-03 0.0000000e+00 
-4.8581155e-04 4.0542853e-03 0.0000000e+00 
-1.3402651e-03 4.0666833e-03 0.0000000e+00 
1.3604524e-03 5.3447829e-03 0.0000000e+00 
3.9502063e-04 5.2915524e-03 0.0000000e+00 
-5.7038980e-04 5.2680314e-03 0.0000000e+00 
-1.5386292e-03 5.2738132e-03 0.0000000e+00 
1.4922112e-03 6.7181185e-03 0.0000000e+00 
4.1557365e-04 6.6606700e-03 0.0000000e+00 
-6.6119642e-04 6.6318675e-03 0.0000000e+00 
-1.7409537e-03 6.6323253e-03 0.0000000e+00 
1.6126741e-03 8.2413317e-03 0.0000000e+00 
4.2706892e-04 8.1773483e-03 0.0000000e+00 
-7.5884253e-04 8.1420269e-03 0.0000000e+00 
-1.9478538e-03 8.1347710e-03 0.0000000e+00 
1.7214891e-03 9.9071298e-03 0.0000000e+00 
4.2892629e-04 9.8380018e-03 0.0000000e+00 
-8.6401783e-04 9.7963971e-03 0.0000000e+00 
-2.1601590e-03 9.7829087e-03 0.0000000e+00 
1.8177648e-03 1.1716994e-02 0.0000000e+00 
4.2053219e-04 1.1640416e-02 0.0000000e+00 
-9.7724937e-04 1.1591401e-02 0.0000000e+00 
-2.3783293e-03 1.1569302e-02 0.0000000e+00 
1.9013282e-03 1.3663588e-02 0.0000000e+00 
4.0138114e-04 1.3581056e-02 0.0000000e+00 
-1.0991673e-03 1.3524943e-02 0.0000000e+00 
-2.6030978e-03 1.3495812e-02 0.0000000e+00 
1.9713160e-03 1.5748520e-02 0.0000000e+00 
3.7093597e-04 1.5657759e-02 0.0000000e+00 
-1.2302012e-03 1.5593476e-02 0.0000000e+00 
-2.8348067e-03 1.5554975e-02 0.0000000e+00 
2.0276864e-03 1.7964412e-02 0.0000000e+00 
3.2878356e-04 1.7867015e-02 0.0000000e+00 
-1.3709071e-03 1.7794944e-02 0.0000000e+00 
-3.0741355e-03 1.7748736e-02 0.0000000e+00 
2.0696072e-03 2.0312987e-02 0.0000000e+00 
2.7445866e-04 2.0206706e-02 0.0000000e+00 
-1.5216206e-03 2.0125827e-02 0.0000000e+00 
-3.3213096e-03 2.0069611e-02 0.0000000e+00 
2.0971593e-03 2.2786822e-02 0.0000000e+00 
2.0763632e-04 2.2673339e-02 0.0000000e+00 
-1.6828281e-03 2.2584103e-02 0.0000000e+00 
-3.5769589e-03 2.2519620e-02 0.0000000e+00 
2.1095428e-03 2.5387743e-02 0.0000000e+00 
1.2791706e-04 2.5264841e-02 0.0000000e+00 
-1.8547773e-03 2.5166273e-02 0.0000000e+00 
-3.8411937e-03 2.5091261e-02 0.0000000e+00 
2.1069537e-03 2.8108296e-02 0.0000000e+00 
3.5062459e-05 2.7977729e-02 0.0000000e+00 
-2.0378860e-03 2.7870344e-02 0.0000000e+00 
-4.1145955e-03 2.7786609e-02 0.0000000e+00 
2.0885848e-03 3.0950378e-02 0.0000000e+00 
-7.1246106e-05 3.0809998e-02 0.0000000e+00 
-2.2322922e-03 3.0692809e-02 0.0000000e+00 
-4.3972073e-03 3.0598152e-02 0.0000000e+00 
2.0547021e-03 3.3906459e-02 0.0000000e+00 
-1.9113033e-04 3.3758000e-02 0.0000000e+00 
-2.4383673e-03 3.3631870e-02 0.0000000e+00 
-4.6896052e-03 3.3528048e-02 0.0000000e+00 
2.0050182e-03 3.6977430e-02 0.0000000e+00 
-3.2527380e-04 3.6819772e-02 0.0000000e+00 
-2.6566147e-03 3.6683954e-02 0.0000000e+00 
-4.9915967e-03 3.6569974e-02 0.0000000e+00 
1.9390083e-03 4.0160604e-02 0.0000000e+00 
-4.7311260e-04 3.9992750e-02 0.0000000e+00 
-2.8864692e-03 3.9846548e-02 0.0000000e+00 
-5.3036988e-03 3.9721272e-02 0.0000000e+00 
1.8571491e-03 4.3449578e-02 0.0000000e+00 
-6.3509430e-04 4.3273380e-02 0.0000000e+00 
-3.1285856e-03 4.3117727e-02 0.0000000e+00 
-5.6260095e-03 4.2983027e-02 0.0000000e+00 
1.7587109e-03 4.6846499e-02 0.0000000e+00 
-8.1143054e-04 4.6659847e-02 0.0000000e+00 
-3.3828944e-03 4.6493866e-02 0.0000000e+00 
-5.9582987e-03 4.6347643e-02 0.0000000e+00 
1.6441963e-03 5.0343718e-02 0.0000000e+00 
-1.0020653e-03 5.0148643e-02 0.0000000e+00 
-3.6495852e-03 4.9973050e-02 0.0000000e+00 
-6.3010544e-03 4.9817332e-02 0.0000000e+00 
1.5129428e-03 5.3943401e-02 0.0000000e+00 
-1.2071422e-03 5.3737800e-02 0.0000000e+00 
-3.9285525e-03 5.3551819e-02 0.0000000e+00 
-6.6539122e-03 5.3384508e-02 0.0000000e+00 
1.3655823e-03 5.7637848e-02 0.0000000e+00 
-1.4265576e-03 5.7423825e-02 0.0000000e+00 
-4.2199468e-03 5.7228222e-02 0.0000000e+00 
-7.0172869e-03 5.7051408e-02 0.0000000e+00 
1.2014799e-03 6.1429267e-02 0.0000000e+00 
-1.6604054e-03 6.1204748e-02 0.0000000e+00 
-4.5235941e-03 6.0998793e-02 0.0000000e+00 
-7.3907219e-03 6.0810419e-02 0.0000000e+00 
1.0213507e-03 6.5309917e-02 0.0000000e+00 
-1.9085119e-03 6.5077065e-02 0.0000000e+00 
-4.8395892e-03 6.4861570e-02 0.0000000e+00 
-7.7745979e-03 6.4663773e-02 0.0000000e+00 
8.2459244e-04 6.9282023e-02 0.0000000e+00 
-2.1709214e-03 6.9038799e-02 0.0000000e+00 
-5.1676912e-03 6.8813076e-02 0.0000000e+00 
-8.1683690e-03 6.8603840e-02 0.0000000e+00 
6.1199973e-04 7.3337811e-02 0.0000000e+00 
-2.4473933e-03 7.3086428e-02 0.0000000e+00 
-5.5079424e-03 7.2851334e-02 0.0000000e+00 
-8.5723821e-03 7.2632842e-02 0.0000000e+00 
3.8300561e-04 7.7479507e-02 0.0000000e+00 
-2.7379251e-03 7.7217965e-02 0.0000000e+00 
-5.8600383e-03 7.6972854e-02 0.0000000e+00 
-8.9860053e-03 7.6743133e-02 0.0000000e+00 
1.3847960e-04 8.1699325e-02 0.0000000e+00 
-3.0422106e-03 8.1429871e-02 0.0000000e+00 
-6.2239689e-03 8.1175639e-02 0.0000000e+00 
-9.4095483e-03 8.0936901e-02 0.0000000e+00 
-1.2214848e-04 8.5999460e-02 0.0000000e+00 
-3.3601839e-03 8.5720176e-02 0.0000000e+00 
-6.5993411e-03 8.5456157e-02 0.0000000e+00 
-9.8423436e-03 8.5206498e-02 0.0000000e+00 
-3.9798099e-04 9.0372069e-02 0.0000000e+00 
-3.6914261e-03 9.0085146e-02 0.0000000e+00 
-6.9861244e-03 8.9812564e-02 0.0000000e+00 
-1.0284709e-02 8.9554110e-02 0.0000000e+00 
-6.8897459e-04 9.4818244e-02 0.0000000e+00 
-4.0362566e-03 9.4522793e-02 0.0000000e+00 
-7.3843230e-03 9.4241221e-02 0.0000000e+00 
-1.0735849e-02 9.3973312e-02 0.0000000e+00 
-9.9525192e-04 9.9335199e-02 0.0000000e+00 
-4.3936681e-03 9.9030570e-02 0.0000000e+00 
-7.7929328e-03 9.8739626e-02 0.0000000e+00 
-1.1195823e-02 9.8461412e-02 0.0000000e+00 
-1.3158527e-03 1.0391634e-01 0.0000000e+00 
-4.7636373e-03 1.0360476e-01 0.0000000e+00 
-8.2122075e-03 1.0330571e-01 0.0000000e+00 
-1.1664394e-02 1.0301938e-01 0.0000000e+00 
-1.6512326e-03 1.0856382e-01 0.0000000e+00 
-5.1460336e-03 1.0824345e-01 0.0000000e+00 
-8.6415955e-03 1.0793573e-01 0.0000000e+00 
-1.2140696e-02 1.0763952e-01 0.0000000e+00 
-2.0003604e-03 1.1326977e-01 0.0000000e+00 
-5.5403200e-03 1.1294299e-01 0.0000000e+00 
-9.0809048e-03 1.1262761e-01 0.0000000e+00 
-1.2624973e-02 1.1232384e-01 0.0000000e+00 
-2.3636117e-03 1.1803628e-01 0.0000000e+00 
-5.9462989e-03 1.1770127e-01 0.0000000e+00 
-9.5295816e-03 1.1737778e-01 0.0000000e+00 
-1.3116262e-02 1.1706467e-01 0.0000000e+00 
-2.7398673e-03 1.2285550e-01 0.0000000e+00 
-6.3634093e-03 1.2251465e-01 0.0000000e+00 
-9.9874089e-03 1.2218409e-01 0.0000000e+00 
-1.3614747e-02 1.2186398e-01 0.0000000e+00 
-3.1294615e-03 1.2772943e-01 0.0000000e+00 
-6.7914172e-03 1.2738099e-01 0.0000000e+00 
-1.0453790e-02 1.2704294e-01 0.0000000e+00 
-1.4119406e-02 1.2671413e-01 0.0000000e+00 
-3.5312373e-03 1.3265029e-01 0.0000000e+00 
-7.2297157e-03 1.3229665e-01 0.0000000e+00 
-1.0928471e-02 1.3195217e-01 0.0000000e+00 
-1.4630401e-02 1.3161700e-01 0.0000000e+00 
-3.9454836e-03 1.3762000e-01 0.0000000e+00 
-7.6780353e-03 1.3725946e-01 0.0000000e+00 
-1.1410814e-02 1.3690817e-01 0.0000000e+00 
-1.5146663e-02 1.3656497e-01 0.0000000e+00 
-4.3710112e-03 1.4263082e-01 0.0000000e+00 
-8.1357292e-03 1.4226577e-01 0.0000000e+00 
-1.1900532e-02 1.4190875e-01 0.0000000e+00 
-1.5668331e-02 1.4155987e-01 0.0000000e+00 
-4.8080631e-03 1.4768459e-01 0.0000000e+00 
-8.6024969e-03 1.4731338e-01 0.0000000e+00 
-1.2396956e-02 1.4695028e-01 0.0000000e+00 
-1.6194294e-02 1.4659411e-01 0.0000000e+00 
-5.2554251e-03 1.5277366e-01 0.0000000e+00 
-9.0776562e-03 1.5239866e-01 0.0000000e+00 
-1.2899765e-02 1.5203057e-01 0.0000000e+00 
-1.6724669e-02 1.5166946e-01 0.0000000e+00 
-5.7133328e-03 1.5789977e-01 0.0000000e+00 
-9.5608630e-03 1.5751942e-01 0.0000000e+00 
-1.3408238e-02 1.5714597e-01 0.0000000e+00 
-1.7258350e-02 1.5677835e-01 0.0000000e+00 
-6.1805908e-03 1.6305529e-01 0.0000000e+00 
-1.0051355e-02 1.6267188e-01 0.0000000e+00 
-1.3922059e-02 1.6229441e-01 0.0000000e+00 
-1.7795478e-02 1.6192253e-01 0.0000000e+00 
-6.6568457e-03 1.6824093e-01 0.0000000e+00 
-1.0549140e-02 1.6785381e-01 0.0000000e+00 
-1.4440908e-02 1.6747218e-01 0.0000000e+00 
-1.8334925e-02 1.6709564e-01 0.0000000e+00 
-7.1418826e-03 1.7345376e-01 0.0000000e+00 
-1.1053009e-02 1.7306260e-01 0.0000000e+00 
-1.4963579e-02 1.7267665e-01 0.0000000e+00 
-1.8876490e-02 1.7229488e-01 0.0000000e+00 
-7.6345584e-03 1.7868753e-01 0.0000000e+00 
-1.1562621e-02 1.7829451e-01 0.0000000e+00 
-1.5490056e-02 1.7790561e-01 0.0000000e+00 
-1.9419775e-02 1.7752082e-01 0.0000000e+00 
-8.1349862e-03 1.8394375e-01 0.0000000e+00 
-1.2077626e-02 1.8354746e-01 0.0000000e+00 
-1.6019550e-02 1.8315529e-01 0.0000000e+00 
-1.9963612e-02 1.8276607e-01 0.0000000e+00 
-8.6419804e-03 1.8921513e-01 0.0000000e+00 
-1.2597241e-02 1.8881783e-01 0.0000000e+00 
-1.6551656e-02 1.8842349e-01 0.0000000e+00 
-2.0508115e-02 1.8803214e-01 0.0000000e+00 
-9.1555822e-03 1.9450308e-01 0.0000000e+00 
-1.3121071e-02 1.9410337e-01 0.0000000e+00 
-1.7085627e-02 1.9370664e-01 0.0000000e+00 
-2.1052081e-02 1.9331172e-01 0.0000000e+00 
-9.6745765e-03 1.9980045e-01 0.0000000e+00 
-1.3648351e-02 1.9940056e-01 0.0000000e+00 
-1.7621070e-02 1.9900251e-01 0.0000000e+00 
-2.1595593e-02 1.9860632e-01 0.0000000e+00 
-1.0198974e-02 2.0510856e-01 0.0000000e+00 
-1.4178677e-02 2.0470714e-01 0.0000000e+00 
-1.8157238e-02 2.0430757e-01 0.0000000e+00 
-2.2137450e-02 2.0390869e-01 0.0000000e+00 
-1.0727579e-02 2.1042043e-01 0.0000000e+00 
-1.4711285e-02 2.1001966e-01 0.0000000e+00 
-1.8693736e-02 2.0961963e-01 0.0000000e+00 
-2.2677744e-02 2.0922033e-01 0.0000000e+00 
-1.1260372e-02 2.1573729e-01 0.0000000e+00 
-1.5245770e-02 2.1533588e-01 0.0000000e+00 
-1.9229827e-02 2.1493518e-01 0.0000000e+00 
-2.3215283e-02 2.1453409e-01 0.0000000e+00 
-1.1796181e-02 2.2105235e-01 0.0000000e+00 
-1.5781375e-02 2.2065240e-01 0.0000000e+00 
-1.9765122e-02 2.2025209e-01 0.0000000e+00 
-2.3750176e-02 2.1985143e-01 0.0000000e+00 
-1.2334963e-02 2.2636679e-01 0.0000000e+00 
-1.6317697e-02 2.2596704e-01 0.0000000e+00 
-2.0298899e-02 2.2556693e-01 0.0000000e+00 
-2.4281246e-02 2.2516534e-01 0.0000000e+00 
-1.2875577e-02 2.3167398e-01 0.0000000e+00 
-1.6853995e-02 2.3127649e-01 0.0000000e+00 
-2.0830783e-02 2.3087759e-01 0.0000000e+00 
-2.4808620e-02 2.3047726e-01 0.0000000e+00 
-1.3417995e-02 2.3697506e-01 0.0000000e+00 
-1.7389863e-02 2.3657864e-01 0.0000000e+00 
-2.1360051e-02 2.3618070e-01 0.0000000e+00 
-2.5331177e-02 2.3578030e-01 0.0000000e+00 
-1.3961136e-02 2.4226358e-01 0.0000000e+00 
-1.7924543e-02 2.4187013e-01 0.0000000e+00 
-2.1886367e-02 2.4147437e-01 0.0000000e+00 
-2.5849102e-02 2.4107595e-01 0.0000000e+00 
-1.4504522e-02 2.4753985e-01 0.0000000e+00 
-1.8457927e-02 2.4714889e-01 0.0000000e+00 
-2.2409415e-02 2.4675521e-01 0.0000000e+00 
-2.6361343e-02 2.4635846e-01 0.0000000e+00 
-1.5047820e-02 2.5280132e-01 0.0000000e+00 
-1.8988949e-02 2.5241263e-01 0.0000000e+00 
-2.2928127e-02 2.5202094e-01 0.0000000e+00 
-2.6867789e-02 2.5162536e-01 0.0000000e+00 
-1.5590058e-02 2.5804295e-01 0.0000000e+00 
-1.9517273e-02 2.5765828e-01 0.0000000e+00 
-2.3442527e-02 2.5726972e-01 0.0000000e+00 
-2.7368217e-02 2.5687729e-01 0.0000000e+00 
-1.6131188e-02 2.6326581e-01 0.0000000e+00 
-2.0042587e-02 2.6288404e-01 0.0000000e+00 
-2.3951960e-02 2.6249835e-01 0.0000000e+00 
-2.7861598e-02 2.6210778e-01 0.0000000e+00 
-1.6670272e-02 2.6846415e-01 0.0000000e+00 
-2.0564242e-02 2.6808704e-01 0.0000000e+00 
-2.4456131e-02 2.6770511e-01 0.0000000e+00 
-2.8348218e-02 2.6731842e-01 0.0000000e+00 
-1.7207235e-02 2.7363901e-01 0.0000000e+00 
-2.1081921e-02 2.7326546e-01 0.0000000e+00 
-2.4954477e-02 2.7288706e-01 0.0000000e+00 
-2.8827062e-02 2.7250292e-01 0.0000000e+00 
-1.7741159e-02 2.7878491e-01 0.0000000e+00 
-2.1595040e-02 2.7841659e-01 0.0000000e+00 
-2.5446750e-02 2.7804257e-01 0.0000000e+00 
-2.9298432e-02 2.7766293e-01 0.0000000e+00 
-1.8271981e-02 2.8390288e-01 0.0000000e+00 
-2.2103313e-02 2.8353871e-01 0.0000000e+00 
-2.5932436e-02 2.8316883e-01 0.0000000e+00 
-2.9761362e-02 2.8279238e-01 0.0000000e+00 
-1.8798841e-02 2.8898773e-01 0.0000000e+00 
-2.2606202e-02 2.8862929e-01 0.0000000e+00 
-2.6411324e-02 2.8826434e-01 0.0000000e+00 
-3.0216205e-02 2.8789298e-01 0.0000000e+00 
-1.9321689e-02 2.9404050e-01 0.0000000e+00 
-2.3103454e-02 2.9368674e-01 0.0000000e+00 
-2.6882954e-02 2.9332646e-01 0.0000000e+00 
-3.0662045e-02 2.9295886e-01 0.0000000e+00 
-1.9839726e-02 2.9905627e-01 0.0000000e+00 
-2.3594583e-02 2.9870868e-01 0.0000000e+00 
-2.7347156e-02 2.9835383e-01 0.0000000e+00 
-3.1099285e-02 2.9799182e-01 0.0000000e+00 
-2.0352920e-02 3.0403612e-01 0.0000000e+00 
-2.4079371e-02 3.0369367e-01 0.0000000e+00 
-2.7803524e-02 3.0334395e-01 0.0000000e+00 
-3.1527065e-02 3.0298622e-01 0.0000000e+00 
-2.0860532e-02 3.0897544e-01 0.0000000e+00 
-2.4557385e-02 3.0863953e-01 0.0000000e+00 
-2.8251930e-02 3.0829565e-01 0.0000000e+00 
-3.1945837e-02 3.0794394e-01 0.0000000e+00 
-2.1362577e-02 3.1387534e-01 0.0000000e+00 
-2.5028436e-02 3.1354496e-01 0.0000000e+00 
-2.8692011e-02 3.1320658e-01 0.0000000e+00 
-3.2354822e-02 3.1285960e-01 0.0000000e+00 
-2.1858397e-02 3.1873148e-01 0.0000000e+00 
-2.5492122e-02 3.1840789e-01 0.0000000e+00 
-2.9123693e-02 3.1807583e-01 0.0000000e+00 
-3.2754545e-02 3.1773517e-01 0.0000000e+00 
-2.2347706e-02 3.2354444e-01 0.0000000e+00 
-2.5948494e-02 3.2322715e-01 0.0000000e+00 
-2.9546982e-02 3.2290116e-01 0.0000000e+00 
-3.3144341e-02 3.2256637e-01 0.0000000e+00 
-2.2830346e-02 3.2831285e-01 0.0000000e+00 
-2.6396925e-02 3.2800153e-01 0.0000000e+00 
-2.9961248e-02 3.2768136e-01 0.0000000e+00 
-3.3524468e-02 3.2735187e-01 0.0000000e+00 
-2.3305759e-02 3.3303370e-01 0.0000000e+00 
-2.6837373e-02 3.3272942e-01 0.0000000e+00 
-3.0366795e-02 3.3241581e-01 0.0000000e+00 
-3.3895149e-02 3.3209308e-01 0.0000000e+00 
-2.3774043e-02 3.3770832e-01 0.0000000e+00 
-2.7269797e-02 3.3741012e-01 0.0000000e+00 
-3.0763397e-02 3.3710266e-01 0.0000000e+00 
-3.4255768e-02 3.3678542e-01 0.0000000e+00 
-2.4234714e-02 3.4233332e-01 0.0000000e+00 
-2.7693961e-02 3.4204225e-01 0.0000000e+00 
-3.1151076e-02 3.4174145e-01 0.0000000e+00 
-3.4606992e-02 3.4143116e-01 0.0000000e+00 
-2.4687879e-02 3.4691008e-01 0.0000000e+00 
-2.8109832e-02 3.4662518e-01 0.0000000e+00 
-3.1529709e-02 3.4633065e-01 0.0000000e+00 
-3.4948228e-02 3.4602601e-01 0.0000000e+00 
-2.5133078e-02 3.5143552e-01 0.0000000e+00 
-2.8517244e-02 3.5115778e-01 0.0000000e+00 
-3.1899364e-02 3.5086997e-01 0.0000000e+00 
-3.5280170e-02 3.5057238e-01 0.0000000e+00 
-2.5570456e-02 3.5591113e-01 0.0000000e+00 
-2.8916203e-02 3.5563959e-01 0.0000000e+00 
-3.2259974e-02 3.5535810e-01 0.0000000e+00 
-3.5602275e-02 3.5506626e-01 0.0000000e+00 
-2.5999603e-02 3.6033414e-01 0.0000000e+00 
-2.9306594e-02 3.6006969e-01 0.0000000e+00 
-3.2611643e-02 3.5979494e-01 0.0000000e+00 
-3.5915281e-02 3.5951017e-01 0.0000000e+00 
-2.6420696e-02 3.6470614e-01 0.0000000e+00 
-2.9688456e-02 3.6444785e-01 0.0000000e+00 
-3.2954356e-02 3.6417940e-01 0.0000000e+00 
-3.6218691e-02 3.6390043e-01 0.0000000e+00 
-2.6833374e-02 3.6902466e-01 0.0000000e+00 
-3.0061724e-02 3.6877335e-01 0.0000000e+00 
-3.3288252e-02 3.6851158e-01 0.0000000e+00 
-3.6513286e-02 3.6823965e-01 0.0000000e+00 
-2.7237847e-02 3.7329141e-01 0.0000000e+00 
-3.0426469e-02 3.7304615e-01 0.0000000e+00 
-3.3613364e-02 3.7279061e-01 0.0000000e+00 
-3.6798611e-02 3.7252446e-01 0.0000000e+00 
-2.7633797e-02 3.7750423e-01 0.0000000e+00 
-3.0782673e-02 3.7726578e-01 0.0000000e+00 
-3.3929859e-02 3.7701680e-01 0.0000000e+00 
-3.7075480e-02 3.7675760e-01 0.0000000e+00 
-2.8021482e-02 3.8166493e-01 0.0000000e+00 
-3.1130428e-02 3.8143240e-01 0.0000000e+00 
-3.4237808e-02 3.8118949e-01 0.0000000e+00 
-3.7343499e-02 3.8093600e-01 0.0000000e+00 
-2.8400640e-02 3.8577164e-01 0.0000000e+00 
-3.1469741e-02 3.8554567e-01 0.0000000e+00 
-3.4537409e-02 3.8530925e-01 0.0000000e+00 
-3.7603522e-02 3.8506251e-01 0.0000000e+00 
-2.8771322e-02 3.8982589e-01 0.0000000e+00 
-3.1800887e-02 3.8960594e-01 0.0000000e+00 
-3.4829000e-02 3.8937561e-01 0.0000000e+00 
-3.7855263e-02 3.8913505e-01 0.0000000e+00 
-2.9133628e-02 3.9382789e-01 0.0000000e+00 
-3.2123666e-02 3.9361352e-01 0.0000000e+00 
-3.5112380e-02 3.9338889e-01 0.0000000e+00 
-3.8099258e-02 3.9315389e-01 0.0000000e+00 
-2.9487345e-02 3.9777685e-01 0.0000000e+00 
-3.2438324e-02 3.9756859e-01 0.0000000e+00 
-3.5388051e-02 3.9735001e-01 0.0000000e+00 
-3.8336072e-02 3.9712149e-01 0.0000000e+00 
-2.9832831e-02 4.0167495e-01 0.0000000e+00 
-3.2745060e-02 4.0147195e-01 0.0000000e+00 
-3.5656165e-02 4.0125892e-01 0.0000000e+00 
-3.8565426e-02 4.0103570e-01 0.0000000e+00 
-3.0169920e-02 4.0552115e-01 0.0000000e+00 
-3.3043986e-02 4.0532394e-01 0.0000000e+00 
-3.5916962e-02 4.0511664e-01 0.0000000e+00 
-3.8788215e-02 4.0489965e-01 0.0000000e+00 
-3.0498978e-02 4.0931775e-01 0.0000000e+00 
-3.3335292e-02 4.0912546e-01 0.0000000e+00 
-3.6170653e-02 4.0892342e-01 0.0000000e+00 
-3.9004159e-02 4.0871149e-01 0.0000000e+00 
-3.0819838e-02 4.1306392e-01 0.0000000e+00 
-3.3619130e-02 4.1287707e-01 0.0000000e+00 
-3.6417497e-02 4.1268044e-01 0.0000000e+00 
-3.9214141e-02 4.1247444e-01 0.0000000e+00 
-3.1132896e-02 4.1676208e-01 0.0000000e+00 
-3.3895703e-02 4.1657982e-01 0.0000000e+00 
-3.6657728e-02 4.1638814e-01 0.0000000e+00 
-3.9417900e-02 4.1618693e-01 0.0000000e+00 
-3.1438002e-02 4.2041166e-01 0.0000000e+00 
-3.4165185e-02 4.2023445e-01 0.0000000e+00 
-3.6891609e-02 4.2004784e-01 0.0000000e+00 
-3.9616319e-02 4.1985224e-01 0.0000000e+00 
-3.1735575e-02 4.2401517e-01 0.0000000e+00 
-3.4427790e-02 4.2384219e-01 0.0000000e+00 
-3.7119394e-02 4.2366019e-01 0.0000000e+00 
-3.9809155e-02 4.2346910e-01 0.0000000e+00 
-3.2025478e-02 4.2757223e-01 0.0000000e+00 
-3.4683709e-02 4.2740392e-01 0.0000000e+00 
-3.7341344e-02 4.2722664e-01 0.0000000e+00 
-3.9997284e-02 4.2704081e-01 0.0000000e+00 
-3.2308152e-02 4.3108548e-01 0.0000000e+00 
-3.4933164e-02 4.3092102e-01 0.0000000e+00 
-3.7557729e-02 4.3074800e-01 0.0000000e+00 
-4.0180474e-02 4.3056639e-01 0.0000000e+00 
-3.2583471e-02 4.3455474e-01 0.0000000e+00 
-3.5176360e-02 4.3439454e-01 0.0000000e+00 
-3.7768808e-02 4.3422588e-01 0.0000000e+00 
-4.0359586e-02 4.3404916e-01 0.0000000e+00 
-3.2851909e-02 4.3798272e-01 0.0000000e+00 
-3.5413519e-02 4.3782600e-01 0.0000000e+00 
-3.7974852e-02 4.3766123e-01 0.0000000e+00 
-4.0534414e-02 4.3748842e-01 0.0000000e+00 
-3.3113364e-02 4.4136939e-01 0.0000000e+00 
-3.5644843e-02 4.4121653e-01 0.0000000e+00 
-3.8176121e-02 4.4105580e-01 0.0000000e+00 
-4.0705800e-02 4.4088748e-01 0.0000000e+00 
-3.3368140e-02 4.4471726e-01 0.0000000e+00 
-3.5870694e-02 4.4456776e-01 0.0000000e+00 
-3.8373023e-02 4.4441070e-01 0.0000000e+00 
-4.0873608e-02 4.4424633e-01 0.0000000e+00 
-3.3616509e-02 4.4802779e-01 0.0000000e+00 
-3.6091074e-02 4.4788121e-01 0.0000000e+00 