# vtk DataFile Version 4.0
vtk output
ASCII
DATASET UNSTRUCTURED_GRID
POINTS 604 float
5.5000000e+00 5.9700000e+00 0.0000000e+00 
5.5000000e+00 5.9900000e+00 0.0000000e+00 
5.5266667e+00 5.9700000e+00 0.0000000e+00 
5.5266667e+00 5.9900000e+00 0.0000000e+00 
5.5000000e+00 6.0100000e+00 0.0000000e+00 
5.5266667e+00 6.0100000e+00 0.0000000e+00 
5.5533333e+00 5.9700000e+00 0.0000000e+00 
5.5533333e+00 5.9900000e+00 0.0000000e+00 
5.5000000e+00 6.0300000e+00 0.0000000e+00 
5.5266667e+00 6.0300000e+00 0.0000000e+00 
5.5533333e+00 6.0100000e+00 0.0000000e+00 
5.5800000e+00 5.9700000e+00 0.0000000e+00 
5.5533333e+00 6.0300000e+00 0.0000000e+00 
5.5800000e+00 5.9900000e+00 0.0000000e+00 
5.5800000e+00 6.0100000e+00 0.0000000e+00 
5.5800000e+00 6.0300000e+00 0.0000000e+00 
5.6066667e+00 5.9700000e+00 0.0000000e+00 
5.6066667e+00 5.9900000e+00 0.0000000e+00 
5.6066667e+00 6.0100000e+00 0.0000000e+00 
5.6066667e+00 6.0300000e+00 0.0000000e+00 
5.6333333e+00 5.9700000e+00 0.0000000e+00 
5.6333333e+00 5.9900000e+00 0.0000000e+00 
5.6333333e+00 6.0100000e+00 0.0000000e+00 
5.6333333e+00 6.0300000e+00 0.0000000e+00 
5.6600000e+00 5.9700000e+00 0.0000000e+00 
5.6600000e+00 5.9900000e+00 0.0000000e+00 
5.6600000e+00 6.0100000e+00 0.0000000e+00 
5.6600000e+00 6.0300000e+00 0.0000000e+00 
5.6866667e+00 5.9700000e+00 0.0000000e+00 
5.6866667e+00 5.9900000e+00 0.0000000e+00 
5.6866667e+00 6.0100000e+00 0.0000000e+00 
5.6866667e+00 6.0300000e+00 0.0000000e+00 
5.7133333e+00 5.9700000e+00 0.0000000e+00 
5.7133333e+00 5.9900000e+00 0.0000000e+00 
5.7133333e+00 6.0100000e+00 0.0000000e+00 
5.7133333e+00 6.0300000e+00 0.0000000e+00 
5.7400000e+00 5.9700000e+00 0.0000000e+00 
5.7400000e+00 5.9900000e+00 0.0000000e+00 
5.7400000e+00 6.0100000e+00 0.0000000e+00 
5.7400000e+00 6.0300000e+00 0.0000000e+00 
5.7666667e+00 5.9700000e+00 0.0000000e+00 
5.7666667e+00 5.9900000e+00 0.0000000e+00 
5.7666667e+00 6.0100000e+00 0.0000000e+00 
5.7666667e+00 6.0300000e+00 0.0000000e+00 
5.7933333e+00 5.9700000e+00 0.0000000e+00 
5.7933333e+00 5.9900000e+00 0.0000000e+00 
5.7933333e+00 6.0100000e+00 0.0000000e+00 
5.7933333e+00 6.0300000e+00 0.0000000e+00 
5.8200000e+00 5.9700000e+00 0.0000000e+00 
5.8200000e+00 5.9900000e+00 0.0000000e+00 
5.8200000e+00 6.0100000e+00 0.0000000e+00 
5.8200000e+00 6.0300000e+00 0.0000000e+00 
5.8466667e+00 5.9700000e+00 0.0000000e+00 
5.8466667e+00 5.9900000e+00 0.0000000e+00 
5.8466667e+00 6.0100000e+00 0.0000000e+00 
5.8466667e+00 6.0300000e+00 0.0000000e+00 
5.8733333e+00 5.9700000e+00 0.0000000e+00 
5.8733333e+00 5.9900000e+00 0.0000000e+00 
5.8733333e+00 6.0100000e+00 0.0000000e+00 
5.8733333e+00 6.0300000e+00 0.0000000e+00 
5.9000000e+00 5.9700000e+00 0.0000000e+00 
5.9000000e+00 5.9900000e+00 0.0000000e+00 
5.9000000e+00 6.0100000e+00 0.0000000e+00 
5.9000000e+00 6.0300000e+00 0.0000000e+00 
5.9266667e+00 5.9700000e+00 0.0000000e+00 
5.9266667e+00 5.9900000e+00 0.0000000e+00 
5.9266667e+00 6.0100000e+00 0.0000000e+00 
5.9266667e+00 6.0300000e+00 0.0000000e+00 
5.9533333e+00 5.9700000e+00 0.0000000e+00 
5.9533333e+00 5.9900000e+00 0.0000000e+00 
5.9533333e+00 6.0100000e+00 0.0000000e+00 
5.9533333e+00 6.0300000e+00 0.0000000e+00 
5.9800000e+00 5.9700000e+00 0.0000000e+00 
5.9800000e+00 5.9900000e+00 0.0000000e+00 
5.9800000e+00 6.0100000e+00 0.0000000e+00 
5.9800000e+00 6.0300000e+00 0.0000000e+00 
6.0066667e+00 5.9700000e+00 0.0000000e+00 
6.0066667e+00 5.9900000e+00 0.0000000e+00 
6.0066667e+00 6.0100000e+00 0.0000000e+00 
6.0066667e+00 6.0300000e+00 0.0000000e+00 
6.0333333e+00 5.9700000e+00 0.0000000e+00 
6.0333333e+00 5.9900000e+00 0.0000000e+00 
6.0333333e+00 6.0100000e+00 0.0000000e+00 
6.0333333e+00 6.0300000e+00 0.0000000e+00 
6.0600000e+00 5.9700000e+00 0.0000000e+00 
6.0600000e+00 5.9900000e+00 0.0000000e+00 
6.0600000e+00 6.0100000e+00 0.0000000e+00 
6.0600000e+00 6.0300000e+00 0.0000000e+00 
6.0866667e+00 5.9700000e+00 0.0000000e+00 
6.0866667e+00 5.9900000e+00 0.0000000e+00 
6.0866667e+00 6.0100000e+00 0.0000000e+00 
6.0866667e+00 6.0300000e+00 0.0000000e+00 
6.1133333e+00 5.9700000e+00 0.0000000e+00 
6.1133333e+00 5.9900000e+00 0.0000000e+00 
6.1133333e+00 6.0100000e+00 0.0000000e+00 
6.1133333e+00 6.0300000e+00 0.0000000e+00 
6.1400000e+00 5.9700000e+00 0.0000000e+00 
6.1400000e+00 5.9900000e+00 0.0000000e+00 
6.1400000e+00 6.0100000e+00 0.0000000e+00 
6.1400000e+00 6.0300000e+00 0.0000000e+00 
6.1666667e+00 5.9700000e+00 0.0000000e+00 
6.1666667e+00 5.9900000e+00 0.0000000e+00 
6.1666667e+00 6.0100000e+00 0.0000000e+00 
6.1666667e+00 6.0300000e+00 0.0000000e+00 
6.1933333e+00 5.9700000e+00 0.0000000e+00 
6.1933333e+00 5.9900000e+00 0.0000000e+00 
6.1933333e+00 6.0100000e+00 0.0000000e+00 
6.1933333e+00 6.0300000e+00 0.0000000e+00 
6.2200000e+00 5.9700000e+00 0.0000000e+00 
6.2200000e+00 5.9900000e+00 0.0000000e+00 
6.2200000e+00 6.0100000e+00 0.0000000e+00 
6.2200000e+00 6.0300000e+00 0.0000000e+00 
6.2466667e+00 5.9700000e+00 0.0000000e+00 
6.2466667e+00 5.9900000e+00 0.0000000e+00 
6.2466667e+00 6.0100000e+00 0.0000000e+00 
6.2466667e+00 6.0300000e+00 0.0000000e+00 
6.2733333e+00 5.9700000e+00 0.0000000e+00 
6.2733333e+00 5.9900000e+00 0.0000000e+00 
6.2733333e+00 6.0100000e+00 0.0000000e+00 
6.2733333e+00 6.0300000e+00 0.0000000e+00 
6.3000000e+00 5.9700000e+00 0.0000000e+00 
6.3000000e+00 5.9900000e+00 0.0000000e+00 
6.3000000e+00 6.0100000e+00 0.0000000e+00 
6.3000000e+00 6.0300000e+00 0.0000000e+00 
6.3266667e+00 5.9700000e+00 0.0000000e+00 
6.3266667e+00 5.9900000e+00 0.0000000e+00 
6.3266667e+00 6.0100000e+00 0.0000000e+00 
6.3266667e+00 6.0300000e+00 0.0000000e+00 
6.3533333e+00 5.9700000e+00 0.0000000e+00 
6.3533333e+00 5.9900000e+00 0.0000000e+00 
6.3533333e+00 6.0100000e+00 0.0000000e+00 
6.3533333e+00 6.0300000e+00 0.0000000e+00 
6.3800000e+00 5.9700000e+00 0.0000000e+00 
6.3800000e+00 5.9900000e+00 0.0000000e+00 
6.3800000e+00 6.0100000e+00 0.0000000e+00 
6.3800000e+00 6.0300000e+00 0.0000000e+00 
6.4066667e+00 5.9700000e+00 0.0000000e+00 
6.4066667e+00 5.9900000e+00 0.0000000e+00 
6.4066667e+00 6.0100000e+00 0.0000000e+00 
6.4066667e+00 6.0300000e+00 0.0000000e+00 
6.4333333e+00 5.9700000e+00 0.0000000e+00 
6.4333333e+00 5.9900000e+00 0.0000000e+00 
6.4333333e+00 6.0100000e+00 0.0000000e+00 
6.4333333e+00 6.0300000e+00 0.0000000e+00 
6.4600000e+00 5.9700000e+00 0.0000000e+00 
6.4600000e+00 5.9900000e+00 0.0000000e+00 
6.4600000e+00 6.0100000e+00 0.0000000e+00 
6.4600000e+00 6.0300000e+00 0.0000000e+00 
6.4866667e+00 5.9700000e+00 0.0000000e+00 
6.4866667e+00 5.9900000e+00 0.0000000e+00 
6.4866667e+00 6.0100000e+00 0.0000000e+00 
6.4866667e+00 6.0300000e+00 0.0000000e+00 
6.5133333e+00 5.9700000e+00 0.0000000e+00 
6.5133333e+00 5.9900000e+00 0.0000000e+00 
6.5133333e+00 6.0100000e+00 0.0000000e+00 
6.5133333e+00 6.0300000e+00 0.0000000e+00 
6.5400000e+00 5.9700000e+00 0.0000000e+00 
6.5400000e+00 5.9900000e+00 0.0000000e+00 
6.5400000e+00 6.0100000e+00 0.0000000e+00 
6.5400000e+00 6.0300000e+00 0.0000000e+00 
6.5666667e+00 5.9700000e+00 0.0000000e+00 
6.5666667e+00 5.9900000e+00 0.0000000e+00 
6.5666667e+00 6.0100000e+00 0.0000000e+00 
6.5666667e+00 6.0300000e+00 0.0000000e+00 
6.5933333e+00 5.9700000e+00 0.0000000e+00 
6.5933333e+00 5.9900000e+00 0.0000000e+00 
6.5933333e+00 6.0100000e+00 0.0000000e+00 
6.5933333e+00 6.0300000e+00 0.0000000e+00 
6.6200000e+00 5.9700000e+00 0.0000000e+00 
6.6200000e+00 5.9900000e+00 0.0000000e+00 
6.6200000e+00 6.0100000e+00 0.0000000e+00 
6.6200000e+00 6.0300000e+00 0.0000000e+00 
6.6466667e+00 5.9700000e+00 0.0000000e+00 
6.6466667e+00 5.9900000e+00 0.0000000e+00 
6.6466667e+00 6.0100000e+00 0.0000000e+00 
6.6466667e+00 6.0300000e+00 0.0000000e+00 
6.6733333e+00 5.9700000e+00 0.0000000e+00 
6.6733333e+00 5.9900000e+00 0.0000000e+00 
6.6733333e+00 6.0100000e+00 0.0000000e+00 
6.6733333e+00 6.0300000e+00 0.0000000e+00 
6.7000000e+00 5.9700000e+00 0.0000000e+00 
6.7000000e+00 5.9900000e+00 0.0000000e+00 
6.7000000e+00 6.0100000e+00 0.0000000e+00 
6.7000000e+00 6.0300000e+00 0.0000000e+00 
6.7266667e+00 5.9700000e+00 0.0000000e+00 
6.7266667e+00 5.9900000e+00 0.0000000e+00 
6.7266667e+00 6.0100000e+00 0.0000000e+00 
6.7266667e+00 6.0300000e+00 0.0000000e+00 
6.7533333e+00 5.9700000e+00 0.0000000e+00 
6.7533333e+00 5.9900000e+00 0.0000000e+00 
6.7533333e+00 6.0100000e+00 0.0000000e+00 
6.7533333e+00 6.0300000e+00 0.0000000e+00 
6.7800000e+00 5.9700000e+00 0.0000000e+00 
6.7800000e+00 5.9900000e+00 0.0000000e+00 
6.7800000e+00 6.0100000e+00 0.0000000e+00 
6.7800000e+00 6.0300000e+00 0.0000000e+00 
6.8066667e+00 5.9700000e+00 0.0000000e+00 
6.8066667e+00 5.9900000e+00 0.0000000e+00 
6.8066667e+00 6.0100000e+00 0.0000000e+00 
6.8066667e+00 6.0300000e+00 0.0000000e+00 
6.8333333e+00 5.9700000e+00 0.0000000e+00 
6.8333333e+00 5.9900000e+00 0.0000000e+00 
6.8333333e+00 6.0100000e+00 0.0000000e+00 
6.8333333e+00 6.0300000e+00 0.0000000e+00 
6.8600000e+00 5.9700000e+00 0.0000000e+00 
6.8600000e+00 5.9900000e+00 0.0000000e+00 
6.8600000e+00 6.0100000e+00 0.0000000e+00 
6.8600000e+00 6.0300000e+00 0.0000000e+00 
6.8866667e+00 5.9700000e+00 0.0000000e+00 
6.8866667e+00 5.9900000e+00 0.0000000e+00 
6.8866667e+00 6.0100000e+00 0.0000000e+00 
6.8866667e+00 6.0300000e+00 0.0000000e+00 
6.9133333e+00 5.9700000e+00 0.0000000e+00 
6.9133333e+00 5.9900000e+00 0.0000000e+00 
6.9133333e+00 6.0100000e+00 0.0000000e+00 
6.9133333e+00 6.0300000e+00 0.0000000e+00 
6.9400000e+00 5.9700000e+00 0.0000000e+00 
6.9400000e+00 5.9900000e+00 0.0000000e+00 
6.9400000e+00 6.0100000e+00 0.0000000e+00 
6.9400000e+00 6.0300000e+00 0.0000000e+00 
6.9666667e+00 5.9700000e+00 0.0000000e+00 
6.9666667e+00 5.9900000e+00 0.0000000e+00 
6.9666667e+00 6.0100000e+00 0.0000000e+00 
6.9666667e+00 6.0300000e+00 0.0000000e+00 
6.9933333e+00 5.9700000e+00 0.0000000e+00 
6.9933333e+00 5.9900000e+00 0.0000000e+00 
6.9933333e+00 6.0100000e+00 0.0000000e+00 
6.9933333e+00 6.0300000e+00 0.0000000e+00 
7.0200000e+00 5.9700000e+00 0.0000000e+00 
7.0200000e+00 5.9900000e+00 0.0000000e+00 
[...]
POINT_DATA 604
FIELD FieldData 2
DISPLACEMENT 3 604  float
0.0000000e+00 0.0000000e+00 0.0000000e+00 
0.0000000e+00 0.0000000e+00 0.0000000e+00 
6.1227873e-07 4.1602212e-07 0.0000000e+00 
1.6895997e-07 2.9551490e-07 0.0000000e+00 
0.0000000e+00 0.0000000e+00 0.0000000e+00 
-2.2359040e-07 3.0072003e-07 0.0000000e+00 
1.1896716e-06 1.3118622e-06 0.0000000e+00 
3.5567263e-07 1.2029771e-06 0.0000000e+00 
0.0000000e+00 0.0000000e+00 0.0000000e+00 
-6.6345444e-07 4.3929575e-07 0.0000000e+00 
-4.5942129e-07 1.1990712e-06 0.0000000e+00 
1.7176997e-06 2.6889687e-06 0.0000000e+00 
-1.2926546e-06 1.2893889e-06 0.0000000e+00 
5.1379630e-07 2.6064916e-06 0.0000000e+00 
-6.6742510e-07 2.6103647e-06 0.0000000e+00 
-1.8715407e-06 2.7126621e-06 0.0000000e+00 
2.1950243e-06 4.5805641e-06 0.0000000e+00 
6.5637170e-07 4.4870975e-06 0.0000000e+00 
-8.6044512e-07 4.4838105e-06 0.0000000e+00 
-2.3991000e-06 4.5586946e-06 0.0000000e+00 
2.6229690e-06 6.8479725e-06 0.0000000e+00 
7.8176818e-07 6.7828835e-06 0.0000000e+00 
-1.0371885e-06 6.7879283e-06 0.0000000e+00 
-2.8768203e-06 6.8724066e-06 0.0000000e+00 
3.0037159e-06 9.5435500e-06 0.0000000e+00 
8.9000197e-07 9.4686678e-06 0.0000000e+00 
-1.1984913e-06 9.4626717e-06 0.0000000e+00 
-3.3042512e-06 9.5218360e-06 0.0000000e+00 
3.3329513e-06 1.2551222e-05 0.0000000e+00 
9.8931575e-07 1.2484981e-05 0.0000000e+00 
-1.3374657e-06 1.2479038e-05 0.0000000e+00 
-3.6875944e-06 1.2530412e-05 0.0000000e+00 
3.6185443e-06 1.5830575e-05 0.0000000e+00 
1.0657926e-06 1.5790091e-05 0.0000000e+00 
-1.4679682e-06 1.5795370e-05 0.0000000e+00 
-4.0225229e-06 1.5855191e-05 0.0000000e+00 
3.8582948e-06 1.9411242e-05 0.0000000e+00 
1.1273842e-06 1.9359912e-05 0.0000000e+00 
-1.5834254e-06 1.9357384e-05 0.0000000e+00 
-4.3130685e-06 1.9392313e-05 0.0000000e+00 
4.0519939e-06 2.3161673e-05 0.0000000e+00 
1.1745535e-06 2.3136967e-05 0.0000000e+00 
-1.6838302e-06 2.3141242e-05 0.0000000e+00 
-4.5613080e-06 2.3185886e-05 0.0000000e+00 
4.2030618e-06 2.7132989e-05 0.0000000e+00 
1.2067648e-06 2.7097235e-05 0.0000000e+00 
-1.7703297e-06 2.7095077e-05 0.0000000e+00 
-4.7655809e-06 2.7115270e-05 0.0000000e+00 
4.3105246e-06 3.1198400e-05 0.0000000e+00 
1.2247487e-06 3.1188571e-05 0.0000000e+00 
-1.8427941e-06 3.1193037e-05 0.0000000e+00 
-4.9286845e-06 3.1222885e-05 0.0000000e+00 
4.3770709e-06 3.5408166e-05 0.0000000e+00 
1.2283719e-06 3.5387544e-05 0.0000000e+00 
-1.9019424e-06 3.5385820e-05 0.0000000e+00 
-5.0496687e-06 3.5392077e-05 0.0000000e+00 
4.4018588e-06 3.9639631e-05 0.0000000e+00 
1.2183887e-06 3.9644050e-05 0.0000000e+00 
-1.9476152e-06 3.9648709e-05 0.0000000e+00 
-5.1311837e-06 3.9664369e-05 0.0000000e+00 
4.3874269e-06 4.3941907e-05 0.0000000e+00 
1.1947006e-06 4.3935756e-05 0.0000000e+00 
-1.9804913e-06 4.3934424e-05 0.0000000e+00 
-5.1724008e-06 4.3927319e-05 0.0000000e+00 
4.3331840e-06 4.8196494e-05 0.0000000e+00 
1.1580096e-06 4.8214552e-05 0.0000000e+00 
-2.0004543e-06 4.8219393e-05 0.0000000e+00 
-5.1757073e-06 4.8221483e-05 0.0000000e+00 
4.2413558e-06 5.2451641e-05 0.0000000e+00 
1.1082970e-06 5.2459267e-05 0.0000000e+00 
-2.0081010e-06 5.2458261e-05 0.0000000e+00 
-5.1405603e-06 5.2438325e-05 0.0000000e+00 
4.1116956e-06 5.6592596e-05 0.0000000e+00 
1.0461957e-06 5.6623673e-05 0.0000000e+00 
-2.0033749e-06 5.6628668e-05 0.0000000e+00 
-5.0689946e-06 5.6617778e-05 0.0000000e+00 
3.9459933e-06 6.0667010e-05 0.0000000e+00 
9.7176250e-07 6.0687822e-05 0.0000000e+00 
-1.9867963e-06 6.0687102e-05 0.0000000e+00 
-4.9608886e-06 6.0654958e-05 0.0000000e+00 
3.7450320e-06 6.4563574e-05 0.0000000e+00 
8.8520985e-07 6.4606838e-05 0.0000000e+00 
-1.9587427e-06 6.4612904e-05 0.0000000e+00 
-4.8172386e-06 6.4589434e-05 0.0000000e+00 
3.5107293e-06 6.8330471e-05 0.0000000e+00 
7.8648457e-07 6.8364753e-05 0.0000000e+00 
-1.9196949e-06 6.8361763e-05 0.0000000e+00 
-4.6378253e-06 6.8318695e-05 0.0000000e+00 
3.2399816e-06 7.1877370e-05 0.0000000e+00 
6.8257970e-07 7.1917499e-05 0.0000000e+00 
-1.8639865e-06 7.1914566e-05 0.0000000e+00 
-4.4275408e-06 7.1865864e-05 0.0000000e+00 
2.9400897e-06 7.5175404e-05 0.0000000e+00 
5.6202189e-07 7.5235936e-05 0.0000000e+00 
-1.8030158e-06 7.5242106e-05 0.0000000e+00 
-4.1824641e-06 7.5201442e-05 0.0000000e+00 
2.6079430e-06 7.8255863e-05 0.0000000e+00 
4.3176687e-07 7.8305713e-05 0.0000000e+00 
-1.7311564e-06 7.8305238e-05 0.0000000e+00 
-3.9074394e-06 7.8244718e-05 0.0000000e+00 
2.2454398e-06 8.1013214e-05 0.0000000e+00 
2.9181999e-07 8.1084589e-05 0.0000000e+00 
-1.6488274e-06 8.1089797e-05 0.0000000e+00 
-3.6023764e-06 8.1038802e-05 0.0000000e+00 
1.8534110e-06 8.3499046e-05 0.0000000e+00 
1.4230657e-07 8.3558913e-05 0.0000000e+00 
-1.5565033e-06 8.3558329e-05 0.0000000e+00 
-3.2681151e-06 8.3487287e-05 0.0000000e+00 
1.4335179e-06 8.5609191e-05 0.0000000e+00 
-1.6646809e-08 8.5690562e-05 0.0000000e+00 
-1.4546242e-06 8.5695723e-05 0.0000000e+00 
-2.9047703e-06 8.5634782e-05 0.0000000e+00 
9.8566203e-07 8.7397784e-05 0.0000000e+00 
-1.8452456e-07 8.7467098e-05 0.0000000e+00 
-1.3432558e-06 8.7466370e-05 0.0000000e+00 
-2.5141099e-06 8.7385438e-05 0.0000000e+00 
5.1182088e-07 8.8761046e-05 0.0000000e+00 
-3.6125267e-07 8.8851774e-05 0.0000000e+00 
-1.2228892e-06 8.8856844e-05 0.0000000e+00 
-2.0959326e-06 8.8786523e-05 0.0000000e+00 
1.1637337e-08 8.9755784e-05 0.0000000e+00 
-5.4626953e-07 8.9833851e-05 0.0000000e+00 
-1.0935449e-06 8.9832900e-05 0.0000000e+00 
-1.6522522e-06 8.9742588e-05 0.0000000e+00 
-5.1267312e-07 9.0278441e-05 0.0000000e+00 
-7.3956864e-07 9.0377901e-05 0.0000000e+00 
-9.5577633e-07 9.0382838e-05 0.0000000e+00 
-1.1826335e-06 9.0303713e-05 0.0000000e+00 
-1.0617016e-06 9.0388816e-05 0.0000000e+00 
-9.4053904e-07 9.0474952e-05 0.0000000e+00 
-8.0955625e-07 9.0473701e-05 0.0000000e+00 
-6.8930753e-07 9.0374525e-05 0.0000000e+00 
-1.6330584e-06 8.9983277e-05 0.0000000e+00 
-1.1492165e-06 9.0090822e-05 0.0000000e+00 
-6.5547474e-07 9.0095580e-05 0.0000000e+00 
-1.7166874e-07 9.0008201e-05 0.0000000e+00 
-2.2275605e-06 8.9124643e-05 0.0000000e+00 
-1.3649819e-06 8.9218331e-05 0.0000000e+00 
-4.9349595e-07 8.9216767e-05 0.0000000e+00 
3.6784065e-07 8.9109402e-05 0.0000000e+00 
-2.8419663e-06 8.7709293e-05 0.0000000e+00 
-1.5882827e-06 8.7824023e-05 0.0000000e+00 
-3.2463575e-07 8.7829642e-05 0.0000000e+00 
9.3068277e-07 8.7734324e-05 0.0000000e+00 
-3.4766547e-06 8.5803908e-05 0.0000000e+00 
-1.8186632e-06 8.5905621e-05 0.0000000e+00 
-1.4886776e-07 8.5900733e-05 0.0000000e+00 
1.5148310e-06 8.5786625e-05 0.0000000e+00 
-4.1334156e-06 8.3325240e-05 0.0000000e+00 
-2.0486737e-06 8.3429689e-05 0.0000000e+00 
3.9935459e-08 8.3424694e-05 0.0000000e+00 
2.1167167e-06 8.3306653e-05 0.0000000e+00 
-4.8045332e-06 8.0254883e-05 0.0000000e+00 
-2.2912943e-06 8.0379408e-05 0.0000000e+00 
2.2889507e-07 8.0384471e-05 0.0000000e+00 
2.7406774e-06 8.0278924e-05 0.0000000e+00 
-5.4949874e-06 7.6645771e-05 0.0000000e+00 
-2.5386168e-06 7.6754359e-05 0.0000000e+00 
4.2457795e-07 7.6751449e-05 0.0000000e+00 
3.3800687e-06 7.6625614e-05 0.0000000e+00 
-6.2013834e-06 7.2391867e-05 0.0000000e+00 
-2.7911061e-06 7.2522237e-05 0.0000000e+00 
6.2613153e-07 7.2525878e-05 0.0000000e+00 
4.0364960e-06 7.2414594e-05 0.0000000e+00 
-6.9241639e-06 6.7570579e-05 0.0000000e+00 
-3.0484095e-06 6.7683786e-05 0.0000000e+00 
8.3330950e-07 6.7680280e-05 0.0000000e+00 
4.7079275e-06 6.7548090e-05 0.0000000e+00 
-7.6606487e-06 6.2075382e-05 0.0000000e+00 
-3.3107273e-06 6.2210724e-05 0.0000000e+00 
1.0453816e-06 6.2213965e-05 0.0000000e+00 
5.3953088e-06 6.2097263e-05 0.0000000e+00 
-8.4119457e-06 5.5987807e-05 0.0000000e+00 
-3.5773551e-06 5.6105151e-05 0.0000000e+00 
1.2624807e-06 5.6101041e-05 0.0000000e+00 
6.0959445e-06 5.5963165e-05 0.0000000e+00 
-9.1753835e-06 4.9200220e-05 0.0000000e+00 
-3.8484730e-06 4.9339885e-05 0.0000000e+00 
1.4839005e-06 4.9342670e-05 0.0000000e+00 
6.8108091e-06 4.9221055e-05 0.0000000e+00 
-9.9520194e-06 4.1797969e-05 0.0000000e+00 
-4.1234043e-06 4.1918832e-05 0.0000000e+00 
1.7097577e-06 4.1914057e-05 0.0000000e+00 
7.5372710e-06 4.1771015e-05 0.0000000e+00 
-1.0739261e-05 3.3672540e-05 0.0000000e+00 
-4.4023306e-06 3.3815905e-05 0.0000000e+00 
1.9393533e-06 3.3818184e-05 0.0000000e+00 
8.2762730e-06 3.3692164e-05 0.0000000e+00 
-1.1538117e-05 2.4913020e-05 0.0000000e+00 
-4.6845926e-06 2.5036802e-05 0.0000000e+00 
2.1728001e-06 2.5031298e-05 0.0000000e+00 
9.0252539e-06 2.4883601e-05 0.0000000e+00 
-1.2346122e-05 1.5410047e-05 0.0000000e+00 
-4.9703520e-06 1.5556476e-05 0.0000000e+00 
2.4094316e-06 1.5558194e-05 0.0000000e+00 
9.7850846e-06 1.5428240e-05 0.0000000e+00 
-1.3164266e-05 5.2560583e-06 0.0000000e+00 
-5.2590082e-06 5.3823620e-06 0.0000000e+00 
2.6493182e-06 5.3761418e-06 0.0000000e+00 
1.0553252e-05 5.2244765e-06 0.0000000e+00 
-1.3989353e-05 -5.6587279e-06 0.0000000e+00 
-5.5511644e-06 -5.5101523e-06 0.0000000e+00 
2.8913503e-06 -5.5077262e-06 0.0000000e+00 
1.1331418e-05 -5.6414376e-06 0.0000000e+00 
-1.4821564e-05 -1.7237862e-05 0.0000000e+00 
-5.8464766e-06 -1.7108248e-05 0.0000000e+00 
3.1354952e-06 -1.7118756e-05 0.0000000e+00 
1.2117888e-05 -1.7272749e-05 0.0000000e+00 
-1.5663972e-05 -2.9566691e-05 0.0000000e+00 
-6.1360692e-06 -2.9436732e-05 0.0000000e+00 
3.3894617e-06 -2.9447576e-05 0.0000000e+00 
1.2908112e-05 -2.9603434e-05 0.0000000e+00 
-1.6507902e-05 -4.2652061e-05 0.0000000e+00 
-6.4357557e-06 -4.2501032e-05 0.0000000e+00 
3.6375640e-06 -4.2499740e-05 0.0000000e+00 
1.3707807e-05 -4.2637525e-05 0.0000000e+00 
-1.7358921e-05 -5.6416452e-05 0.0000000e+00 
-6.7362656e-06 -5.6287334e-05 0.0000000e+00 
3.8878948e-06 -5.6295836e-05 0.0000000e+00 
1.4509968e-05 -5.6455717e-05 0.0000000e+00 
-1.8214308e-05 -7.0972304e-05 0.0000000e+00 
-7.0380573e-06 -7.0820145e-05 0.0000000e+00 
4.1397038e-06 -7.0820908e-05 0.0000000e+00 
1.5315944e-05 -7.0960442e-05 0.0000000e+00 
-1.9073887e-05 -8.6214104e-05 0.0000000e+00 
-7.3410458e-06 -8.6085001e-05 0.0000000e+00 
4.3925974e-06 -8.6094470e-05 0.0000000e+00 
1.6124592e-05 -8.6256806e-05 0.0000000e+00 
-1.9935889e-05 -1.0225443e-04 0.0000000e+00 
-7.6453868e-06 -1.0210196e-04 0.0000000e+00 
4.6460177e-06 -1.0210352e-04 0.0000000e+00 
1.6936406e-05 -1.0224469e-04 0.0000000e+00 
-2.0800909e-05 -1.1898452e-04 0.0000000e+00 
-7.9505797e-06 -1.1885574e-04 0.0000000e+00 
4.9000234e-06 -1.1886617e-04 0.0000000e+00 
1.7749537e-05 -1.1903039e-04 0.0000000e+00 
-2.1667239e-05 -1.3651783e-04 0.0000000e+00 
-8.2567474e-06 -1.3636556e-04 0.0000000e+00 
5.1541161e-06 -1.3636799e-04 0.0000000e+00 
1.8564483e-05 -1.3651044e-04 0.0000000e+00 
-2.2535413e-05 -1.5474283e-04 0.0000000e+00 
-8.5634267e-06 -1.5461484e-04 0.0000000e+00 
5.4083351e-06 -1.5462630e-04 0.0000000e+00 
1.9379534e-05 -1.5479203e-04 0.0000000e+00 
-2.3403823e-05 -1.7377357e-04 0.0000000e+00 
-8.8707444e-06 -1.7362197e-04 0.0000000e+00 
5.6622077e-06 -1.7362533e-04 0.0000000e+00 
2.0195153e-05 -1.7376872e-04 0.0000000e+00 
-2.4272975e-05 -1.9349587e-04 0.0000000e+00 
-9.1782514e-06 -1.9336911e-04 0.0000000e+00 
5.9157758e-06 -1.9338168e-04 0.0000000e+00 
2.1009731e-05 -1.9354857e-04 0.0000000e+00 
-2.5141379e-05 -2.1402441e-04 0.0000000e+00 
-9.4860611e-06 -2.1387395e-04 0.0000000e+00 
6.1686100e-06 -2.1387829e-04 0.0000000e+00 
2.1823680e-05 -2.1402233e-04 0.0000000e+00 
-2.6009577e-05 -2.3524275e-04 0.0000000e+00 
-9.7937750e-06 -2.3511744e-04 0.0000000e+00 
6.4207182e-06 -2.3513109e-04 0.0000000e+00 
2.2635430e-05 -2.3529863e-04 0.0000000e+00 
-2.6875186e-05 -2.5726583e-04 0.0000000e+00 
-1.0102031e-05 -2.5711727e-04 0.0000000e+00 
6.6711651e-06 -2.5712114e-04 0.0000000e+00 
2.3446342e-05 -2.5726587e-04 0.0000000e+00 
-2.7737878e-05 -2.7997407e-04 0.0000000e+00 
-1.0410690e-05 -2.7984910e-04 0.0000000e+00 
6.9198110e-06 -2.7986787e-04 0.0000000e+00 
2.4255769e-05 -2.8003440e-04 0.0000000e+00 
-2.8602245e-05 -3.0345466e-04 0.0000000e+00 
-1.0709763e-05 -3.0333115e-04 0.0000000e+00 
7.1758530e-06 -3.0335051e-04 0.0000000e+00 
2.5058141e-05 -3.0351739e-04 0.0000000e+00 
-2.9458961e-05 -3.2770592e-04 0.0000000e+00 
-1.1017326e-05 -3.2756052e-04 0.0000000e+00 
7.4213666e-06 -3.2756613e-04 0.0000000e+00 
2.5860723e-05 -3.2771063e-04 0.0000000e+00 
-3.0314157e-05 -3.5263209e-04 0.0000000e+00 
-1.1323073e-05 -3.5251314e-04 0.0000000e+00 
7.6657939e-06 -3.5253005e-04 0.0000000e+00 
2.6656526e-05 -3.5269846e-04 0.0000000e+00 
-3.1165747e-05 -3.7835137e-04 0.0000000e+00 
-1.1627490e-05 -3.7820825e-04 0.0000000e+00 
7.9085451e-06 -3.7821652e-04 0.0000000e+00 
2.7446728e-05 -3.7836011e-04 0.0000000e+00 
-3.2013234e-05 -4.0473719e-04 0.0000000e+00 
-1.1930666e-05 -4.0462166e-04 0.0000000e+00 
8.1491682e-06 -4.0463996e-04 0.0000000e+00 
2.8231062e-05 -4.0480831e-04 0.0000000e+00 
-3.2855503e-05 -4.3190827e-04 0.0000000e+00 
-1.2232805e-05 -4.3176809e-04 0.0000000e+00 
8.3872759e-06 -4.3177757e-04 0.0000000e+00 
2.9009797e-05 -4.3192032e-04 0.0000000e+00 
-3.3692982e-05 -4.5973505e-04 0.0000000e+00 
-1.2533491e-05 -4.5962305e-04 0.0000000e+00 
8.6229422e-06 -4.5964272e-04 0.0000000e+00 
2.9781783e-05 -4.5981058e-04 0.0000000e+00 
-3.4524568e-05 -4.8833776e-04 0.0000000e+00 
-1.2832901e-05 -4.8820086e-04 0.0000000e+00 
8.8558276e-06 -4.8821159e-04 0.0000000e+00 
3.0547321e-05 -4.8835331e-04 0.0000000e+00 
-3.5350634e-05 -5.1758425e-04 0.0000000e+00 
-1.3130643e-05 -5.1747610e-04 0.0000000e+00 
9.0859895e-06 -5.1749719e-04 0.0000000e+00 
3.1305365e-05 -5.1766434e-04 0.0000000e+00 
-3.6170152e-05 -5.4759605e-04 0.0000000e+00 
-1.3426904e-05 -5.4746272e-04 0.0000000e+00 
9.3131014e-06 -5.4747473e-04 0.0000000e+00 
3.2056180e-05 -5.4761519e-04 0.0000000e+00 
-3.6983456e-05 -5.7823841e-04 0.0000000e+00 
-1.3721299e-05 -5.7813436e-04 0.0000000e+00 
9.5372222e-06 -5.7815693e-04 0.0000000e+00 
3.2798804e-05 -5.7832316e-04 0.0000000e+00 
-3.7789640e-05 -6.0963419e-04 0.0000000e+00 
-1.4013993e-05 -6.0950471e-04 0.0000000e+00 
9.7580651e-06 -6.0951804e-04 0.0000000e+00 
3.3533424e-05 -6.0965707e-04 0.0000000e+00 
-3.8589042e-05 -6.4164646e-04 0.0000000e+00 
-1.4304659e-05 -6.4154652e-04 0.0000000e+00 
9.9756426e-06 -6.4157051e-04 0.0000000e+00 
3.4259115e-05 -6.4173536e-04 0.0000000e+00 
-3.9379771e-05 -6.7439896e-04 0.0000000e+00 
-1.4594045e-05 -6.7427397e-04 0.0000000e+00 
1.0189096e-05 -6.7428692e-04 0.0000000e+00 
3.4977095e-05 -6.7442471e-04 0.0000000e+00 
-4.0161093e-05 -7.0775158e-04 0.0000000e+00 
-1.4882129e-05 -7.0765427e-04 0.0000000e+00 
1.0398218e-05 -7.0768414e-04 0.0000000e+00 
3.5687535e-05 -7.0784585e-04 0.0000000e+00 
-4.0938970e-05 -7.4179721e-04 0.0000000e+00 
-1.5157718e-05 -7.4170253e-04 0.0000000e+00 
1.0613674e-05 -7.4173317e-04 0.0000000e+00 
3.6383823e-05 -7.4189428e-04 0.0000000e+00 
-4.1703313e-05 -7.7652899e-04 0.0000000e+00 
-1.5441289e-05 -7.7641062e-04 0.0000000e+00 
1.0815169e-05 -7.7642565e-04 0.0000000e+00 
3.7074592e-05 -7.7656042e-04 0.0000000e+00 
-4.2460668e-05 -8.1183469e-04 0.0000000e+00 
-1.5721384e-05 -8.1174691e-04 0.0000000e+00 
1.1013487e-05 -8.1177473e-04 0.0000000e+00 
3.7752836e-05 -8.1193582e-04 0.0000000e+00 
-4.3209690e-05 -8.4784263e-04 0.0000000e+00 
-1.5998477e-05 -8.4772857e-04 0.0000000e+00 
1.1208204e-05 -8.4774663e-04 0.0000000e+00 
3.8419331e-05 -8.4787871e-04 0.0000000e+00 
-4.3949233e-05 -8.8440671e-04 0.0000000e+00 
-1.6272870e-05 -8.8432431e-04 0.0000000e+00 
1.1398727e-05 -8.8435364e-04 0.0000000e+00 
3.9074843e-05 -8.8451297e-04 0.0000000e+00 
-4.4679099e-05 -9.2165569e-04 0.0000000e+00 
-1.6544720e-05 -9.2154649e-04 0.0000000e+00 
1.1584884e-05 -9.2156588e-04 0.0000000e+00 
3.9719055e-05 -9.2169549e-04 0.0000000e+00 
-4.5399119e-05 -9.5944115e-04 0.0000000e+00 
-1.6813782e-05 -9.5936399e-04 0.0000000e+00 
1.1766649e-05 -9.5939474e-04 0.0000000e+00 
4.0351811e-05 -9.5955187e-04 0.0000000e+00 
-4.6109181e-05 -9.9789319e-04 0.0000000e+00 
-1.7080154e-05 -9.9778902e-04 0.0000000e+00 
1.1943936e-05 -9.9780972e-04 0.0000000e+00 
4.0972755e-05 -9.9793675e-04 0.0000000e+00 
-4.6808989e-05 -1.0368618e-03 0.0000000e+00 
-1.7343645e-05 -1.0367900e-03 0.0000000e+00 
1.2116675e-05 -1.0368221e-03 0.0000000e+00 
4.1581918e-05 -1.0369769e-03 0.0000000e+00 
-4.7498569e-05 -1.0764779e-03 0.0000000e+00 
-1.7604337e-05 -1.0763788e-03 0.0000000e+00 
1.2284820e-05 -1.0764008e-03 0.0000000e+00 
4.2178843e-05 -1.0765252e-03 0.0000000e+00 
-4.8177535e-05 -1.1165900e-03 0.0000000e+00 
-1.7862067e-05 -1.1165236e-03 0.0000000e+00 
1.2448279e-05 -1.1165571e-03 0.0000000e+00 
4.2763714e-05 -1.1167093e-03 0.0000000e+00 
-4.8846079e-05 -1.1573299e-03 0.0000000e+00 
-1.8116874e-05 -1.1572362e-03 0.0000000e+00 
1.2607073e-05 -1.1572594e-03 0.0000000e+00 
4.3335941e-05 -1.1573810e-03 0.0000000e+00 
-4.9503795e-05 -1.1985454e-03 0.0000000e+00 
-1.8368669e-05 -1.1984841e-03 0.0000000e+00 
1.2761045e-05 -1.1985189e-03 0.0000000e+00 
4.3895786e-05 -1.1986682e-03 0.0000000e+00 
-5.0149833e-05 -1.2403681e-03 0.0000000e+00 
-1.8618098e-05 -1.2402801e-03 0.0000000e+00 
1.2909624e-05 -1.2403028e-03 0.0000000e+00 
4.4443727e-05 -1.2404218e-03 0.0000000e+00 
-5.0782605e-05 -1.2826442e-03 0.0000000e+00 
-1.8865417e-05 -1.2825864e-03 0.0000000e+00 
1.3052368e-05 -1.2826270e-03 0.0000000e+00 
4.4981238e-05 -1.2827715e-03 0.0000000e+00 
-5.1409513e-05 -1.3254715e-03 0.0000000e+00 
-1.9098630e-05 -1.3254165e-03 0.0000000e+00 
1.3201008e-05 -1.3254578e-03 0.0000000e+00 
4.5500560e-05 -1.3256008e-03 0.0000000e+00 
-5.2020041e-05 -1.3688395e-03 0.0000000e+00 
-1.9339667e-05 -1.3687597e-03 0.0000000e+00 
1.3333822e-05 -1.3687842e-03 0.0000000e+00 
4.6011339e-05 -1.3688985e-03 0.0000000e+00 
-5.2620636e-05 -1.4126279e-03 0.0000000e+00 
-1.9576485e-05 -1.4125805e-03 0.0000000e+00 
1.3462366e-05 -1.4126183e-03 0.0000000e+00 
4.6507103e-05 -1.4127601e-03 0.0000000e+00 
-5.3210905e-05 -1.4569698e-03 0.0000000e+00 
-1.9809387e-05 -1.4568951e-03 0.0000000e+00 
1.3586540e-05 -1.4569225e-03 0.0000000e+00 
4.6987937e-05 -1.4570331e-03 0.0000000e+00 
-5.3788965e-05 -1.5017106e-03 0.0000000e+00 
-2.0038944e-05 -1.5016690e-03 0.0000000e+00 
1.3705528e-05 -1.5017080e-03 0.0000000e+00 
4.7455748e-05 -1.5018467e-03 0.0000000e+00 
-5.4355504e-05 -1.5469826e-03 0.0000000e+00 
-2.0265164e-05 -1.5469134e-03 0.0000000e+00 
1.3819471e-05 -1.5469419e-03 0.0000000e+00 
4.7909564e-05 -1.5470492e-03 0.0000000e+00 
-5.4909789e-05 -1.5926305e-03 0.0000000e+00 
-2.0488006e-05 -1.5925944e-03 0.0000000e+00 
1.3928180e-05 -1.5926345e-03 0.0000000e+00 
4.8350165e-05 -1.5927699e-03 0.0000000e+00 
-5.5452457e-05 -1.6387869e-03 0.0000000e+00 
-2.0707427e-05 -1.6387232e-03 0.0000000e+00 
1.4031859e-05 -1.6387528e-03 0.0000000e+00 
4.8776648e-05 -1.6388566e-03 0.0000000e+00 
-5.5982757e-05 -1.6852964e-03 0.0000000e+00 
-2.0923411e-05 -1.6852658e-03 0.0000000e+00 
1.4130296e-05 -1.6853070e-03 0.0000000e+00 
4.9189837e-05 -1.6854388e-03 0.0000000e+00 
-5.6501311e-05 -1.7322914e-03 0.0000000e+00 
-2.1135917e-05 -1.7322333e-03 0.0000000e+00 
1.4223703e-05 -1.7322639e-03 0.0000000e+00 
4.9588863e-05 -1.7323643e-03 0.0000000e+00 
-5.7007412e-05 -1.7796168e-03 0.0000000e+00 
-2.1344927e-05 -1.7795917e-03 0.0000000e+00 
1.4311876e-05 -1.7796339e-03 0.0000000e+00 
4.9974529e-05 -1.7797622e-03 0.0000000e+00 
-5.7501671e-05 -1.8274044e-03 0.0000000e+00 
-2.1550378e-05 -1.8273519e-03 0.0000000e+00 
1.4395055e-05 -1.8273835e-03 0.0000000e+00 
5.0345992e-05 -1.8274804e-03 0.0000000e+00 
-5.7983518e-05 -1.8754998e-03 0.0000000e+00 
-2.1752292e-05 -1.8754800e-03 0.0000000e+00 
1.4473003e-05 -1.8755230e-03 0.0000000e+00 
5.0703944e-05 -1.8756474e-03 0.0000000e+00 
-5.8452338e-05 -1.9240341e-03 0.0000000e+00 
-2.1951240e-05 -1.9239875e-03 0.0000000e+00 
1.4545332e-05 -1.9240182e-03 0.0000000e+00 
5.1048781e-05 -1.9241120e-03 0.0000000e+00 
-5.8906574e-05 -1.9728521e-03 0.0000000e+00 
-2.2147530e-05 -1.9728357e-03 0.0000000e+00 
1.4611566e-05 -1.9728842e-03 0.0000000e+00 
5.1382183e-05 -1.9730030e-03 0.0000000e+00 
-5.9353647e-05 -2.0220508e-03 0.0000000e+00 
-2.2329201e-05 -2.0220371e-03 0.0000000e+00 
1.4683517e-05 -2.0220861e-03 0.0000000e+00 
5.1696514e-05 -2.0222029e-03 0.0000000e+00 