# vtk DataFile Version 4.0
vtk output
ASCII
DATASET UNSTRUCTURED_GRID
POINTS 604 float
5.5000000e+00 5.9700000e+00 0.0000000e+00 
5.5000000e+00 5.9900000e+00 0.0000000e+00 
5.5266667e+00 5.9700000e+00 0.0000000e+00 
5.5266667e+00 5.9900000e+00 0.0000000e+00 
5.5000000e+00 6.0100000e+00 0.0000000e+00 
5.5266667e+00 6.0100000e+00 0.0000000e+00 
5.5533333e+00 5.9700000e+00 0.0000000e+00 
5.5533333e+00 5.9900000e+00 0.0000000e+00 
5.5000000e+00 6.0300000e+00 0.0000000e+00 
5.5266667e+00 6.0300000e+00 0.0000000e+00 
5.5533333e+00 6.0100000e+00 0.0000000e+00 
5.5800000e+00 5.9700000e+00 0.0000000e+00 
5.5533333e+00 6.0300000e+00 0.0000000e+00 
5.5800000e+00 5.9900000e+00 0.0000000e+00 
5.5800000e+00 6.0100000e+00 0.0000000e+00 
5.5800000e+00 6.0300000e+00 0.0000000e+00 
5.6066667e+00 5.9700000e+00 0.0000000e+00 
5.6066667e+00 5.9900000e+00 0.0000000e+00 
5.6066667e+00 6.0100000e+00 0.0000000e+00 
5.6066667e+00 6.0300000e+00 0.0000000e+00 
5.6333333e+00 5.9700000e+00 0.0000000e+00 
5.6333333e+00 5.9900000e+00 0.0000000e+00 
5.6333333e+00 6.0100000e+00 0.0000000e+00 
5.6333333e+00 6.0300000e+00 0.0000000e+00 
5.6600000e+00 5.9700000e+00 0.0000000e+00 
5.6600000e+00 5.9900000e+00 0.0000000e+00 
5.6600000e+00 6.0100000e+00 0.0000000e+00 
5.6600000e+00 6.0300000e+00 0.0000000e+00 
5.6866667e+00 5.9700000e+00 0.0000000e+00 
5.6866667e+00 5.9900000e+00 0.0000000e+00 
5.6866667e+00 6.0100000e+00 0.0000000e+00 
5.6866667e+00 6.0300000e+00 0.0000000e+00 
5.7133333e+00 5.9700000e+00 0.0000000e+00 
5.7133333e+00 5.9900000e+00 0.0000000e+00 
5.7133333e+00 6.0100000e+00 0.0000000e+00 
5.7133333e+00 6.0300000e+00 0.0000000e+00 
5.7400000e+00 5.9700000e+00 0.0000000e+00 
5.7400000e+00 5.9900000e+00 0.0000000e+00 
5.7400000e+00 6.0100000e+00 0.0000000e+00 
5.7400000e+00 6.0300000e+00 0.0000000e+00 
5.7666667e+00 5.9700000e+00 0.0000000e+00 
5.7666667e+00 5.9900000e+00 0.0000000e+00 
5.7666667e+00 6.0100000e+00 0.0000000e+00 
5.7666667e+00 6.0300000e+00 0.0000000e+00 
5.7933333e+00 5.9700000e+00 0.0000000e+00 
5.7933333e+00 5.9900000e+00 0.0000000e+00 
5.7933333e+00 6.0100000e+00 0.0000000e+00 
5.7933333e+00 6.0300000e+00 0.0000000e+00 
5.8200000e+00 5.9700000e+00 0.0000000e+00 
5.8200000e+00 5.9900000e+00 0.0000000e+00 
5.8200000e+00 6.0100000e+00 0.0000000e+00 
5.8200000e+00 6.0300000e+00 0.0000000e+00 
5.8466667e+00 5.9700000e+00 0.0000000e+00 
5.8466667e+00 5.9900000e+00 0.0000000e+00 
5.8466667e+00 6.0100000e+00 0.0000000e+00 
5.8466667e+00 6.0300000e+00 0.0000000e+00 
5.8733333e+00 5.9700000e+00 0.0000000e+00 
5.8733333e+00 5.9900000e+00 0.0000000e+00 
5.8733333e+00 6.0100000e+00 0.0000000e+00 
5.8733333e+00 6.0300000e+00 0.0000000e+00 
5.9000000e+00 5.9700000e+00 0.0000000e+00 
5.9000000e+00 5.9900000e+00 0.0000000e+00 
5.9000000e+00 6.0100000e+00 0.0000000e+00 
5.9000000e+00 6.0300000e+00 0.0000000e+00 
5.9266667e+00 5.9700000e+00 0.0000000e+00 
5.9266667e+00 5.9900000e+00 0.0000000e+00 
5.9266667e+00 6.0100000e+00 0.0000000e+00 
5.9266667e+00 6.0300000e+00 0.0000000e+00 
5.9533333e+00 5.9700000e+00 0.0000000e+00 
5.9533333e+00 5.9900000e+00 0.0000000e+00 
5.9533333e+00 6.0100000e+00 0.0000000e+00 
5.9533333e+00 6.0300000e+00 0.0000000e+00 
5.9800000e+00 5.9700000e+00 0.0000000e+00 
5.9800000e+00 5.9900000e+00 0.0000000e+00 
5.9800000e+00 6.0100000e+00 0.0000000e+00 
5.9800000e+00 6.0300000e+00 0.0000000e+00 
6.0066667e+00 5.9700000e+00 0.0000000e+00 
6.0066667e+00 5.9900000e+00 0.0000000e+00 
6.0066667e+00 6.0100000e+00 0.0000000e+00 
6.0066667e+00 6.0300000e+00 0.0000000e+00 
6.0333333e+00 5.9700000e+00 0.0000000e+00 
6.0333333e+00 5.9900000e+00 0.0000000e+00 
6.0333333e+00 6.0100000e+00 0.0000000e+00 
6.0333333e+00 6.0300000e+00 0.0000000e+00 
6.0600000e+00 5.9700000e+00 0.0000000e+00 
6.0600000e+00 5.9900000e+00 0.0000000e+00 
6.0600000e+00 6.0100000e+00 0.0000000e+00 
6.0600000e+00 6.0300000e+00 0.0000000e+00 
6.0866667e+00 5.9700000e+00 0.0000000e+00 
6.0866667e+00 5.9900000e+00 0.0000000e+00 
6.0866667e+00 6.0100000e+00 0.0000000e+00 
6.0866667e+00 6.0300000e+00 0.0000000e+00 
6.1133333e+00 5.9700000e+00 0.0000000e+00 
6.1133333e+00 5.9900000e+00 0.0000000e+00 
6.1133333e+00 6.0100000e+00 0.0000000e+00 
6.1133333e+00 6.0300000e+00 0.0000000e+00 
6.1400000e+00 5.9700000e+00 0.0000000e+00 
6.1400000e+00 5.9900000e+00 0.0000000e+00 
6.1400000e+00 6.0100000e+00 0.0000000e+00 
6.1400000e+00 6.0300000e+00 0.0000000e+00 
6.1666667e+00 5.9700000e+00 0.0000000e+00 
6.1666667e+00 5.9900000e+00 0.0000000e+00 
6.1666667e+00 6.0100000e+00 0.0000000e+00 
6.1666667e+00 6.0300000e+00 0.0000000e+00 
6.1933333e+00 5.9700000e+00 0.0000000e+00 
6.1933333e+00 5.9900000e+00 0.0000000e+00 
6.1933333e+00 6.0100000e+00 0.0000000e+00 
6.1933333e+00 6.0300000e+00 0.0000000e+00 
6.2200000e+00 5.9700000e+00 0.0000000e+00 
6.2200000e+00 5.9900000e+00 0.0000000e+00 
6.2200000e+00 6.0100000e+00 0.0000000e+00 
6.2200000e+00 6.0300000e+00 0.0000000e+00 
6.2466667e+00 5.9700000e+00 0.0000000e+00 
6.2466667e+00 5.9900000e+00 0.0000000e+00 
6.2466667e+00 6.0100000e+00 0.0000000e+00 
6.2466667e+00 6.0300000e+00 0.0000000e+00 
6.2733333e+00 5.9700000e+00 0.0000000e+00 
6.2733333e+00 5.9900000e+00 0.0000000e+00 
6.2733333e+00 6.0100000e+00 0.0000000e+00 
6.2733333e+00 6.0300000e+00 0.0000000e+00 
6.3000000e+00 5.9700000e+00 0.0000000e+00 
6.3000000e+00 5.9900000e+00 0.0000000e+00 
6.3000000e+00 6.0100000e+00 0.0000000e+00 
6.3000000e+00 6.0300000e+00 0.0000000e+00 
6.3266667e+00 5.9700000e+00 0.0000000e+00 
6.3266667e+00 5.9900000e+00 0.0000000e+00 
6.3266667e+00 6.0100000e+00 0.0000000e+00 
6.3266667e+00 6.0300000e+00 0.0000000e+00 
6.3533333e+00 5.9700000e+00 0.0000000e+00 
6.3533333e+00 5.9900000e+00 0.0000000e+00 
6.3533333e+00 6.0100000e+00 0.0000000e+00 
6.3533333e+00 6.0300000e+00 0.0000000e+00 
6.3800000e+00 5.9700000e+00 0.0000000e+00 
6.3800000e+00 5.9900000e+00 0.0000000e+00 
6.3800000e+00 6.0100000e+00 0.0000000e+00 
6.3800000e+00 6.0300000e+00 0.0000000e+00 
6.4066667e+00 5.9700000e+00 0.0000000e+00 
6.4066667e+00 5.9900000e+00 0.0000000e+00 
6.4066667e+00 6.0100000e+00 0.0000000e+00 
6.4066667e+00 6.0300000e+00 0.0000000e+00 
6.4333333e+00 5.9700000e+00 0.0000000e+00 
6.4333333e+00 5.9900000e+00 0.0000000e+00 
6.4333333e+00 6.0100000e+00 0.0000000e+00 
6.4333333e+00 6.0300000e+00 0.0000000e+00 
6.4600000e+00 5.9700000e+00 0.0000000e+00 
6.4600000e+00 5.9900000e+00 0.0000000e+00 
6.4600000e+00 6.0100000e+00 0.0000000e+00 
6.4600000e+00 6.0300000e+00 0.0000000e+00 
6.4866667e+00 5.9700000e+00 0.0000000e+00 
6.4866667e+00 5.9900000e+00 0.0000000e+00 
6.4866667e+00 6.0100000e+00 0.0000000e+00 
6.4866667e+00 6.0300000e+00 0.0000000e+00 
6.5133333e+00 5.9700000e+00 0.0000000e+00 
6.5133333e+00 5.9900000e+00 0.0000000e+00 
6.5133333e+00 6.0100000e+00 0.0000000e+00 
6.5133333e+00 6.0300000e+00 0.0000000e+00 
6.5400000e+00 5.9700000e+00 0.0000000e+00 
6.5400000e+00 5.9900000e+00 0.0000000e+00 
6.5400000e+00 6.0100000e+00 0.0000000e+00 
6.5400000e+00 6.0300000e+00 0.0000000e+00 
6.5666667e+00 5.9700000e+00 0.0000000e+00 
6.5666667e+00 5.9900000e+00 0.0000000e+00 
6.5666667e+00 6.0100000e+00 0.0000000e+00 
6.5666667e+00 6.0300000e+00 0.0000000e+00 
6.5933333e+00 5.9700000e+00 0.0000000e+00 
6.5933333e+00 5.9900000e+00 0.0000000e+00 
6.5933333e+00 6.0100000e+00 0.0000000e+00 
6.5933333e+00 6.0300000e+00 0.0000000e+00 
6.6200000e+00 5.9700000e+00 0.0000000e+00 
6.6200000e+00 5.9900000e+00 0.0000000e+00 
6.6200000e+00 6.0100000e+00 0.0000000e+00 
6.6200000e+00 6.0300000e+00 0.0000000e+00 
6.6466667e+00 5.9700000e+00 0.0000000e+00 
6.6466667e+00 5.9900000e+00 0.0000000e+00 
6.6466667e+00 6.0100000e+00 0.0000000e+00 
6.6466667e+00 6.0300000e+00 0.0000000e+00 
6.6733333e+00 5.9700000e+00 0.0000000e+00 
6.6733333e+00 5.9900000e+00 0.0000000e+00 
6.6733333e+00 6.0100000e+00 0.0000000e+00 
6.6733333e+00 6.0300000e+00 0.0000000e+00 
6.7000000e+00 5.9700000e+00 0.0000000e+00 
6.7000000e+00 5.9900000e+00 0.0000000e+00 
6.7000000e+00 6.0100000e+00 0.0000000e+00 
6.7000000e+00 6.0300000e+00 0.0000000e+00 
6.7266667e+00 5.9700000e+00 0.0000000e+00 
6.7266667e+00 5.9900000e+00 0.0000000e+00 
6.7266667e+00 6.0100000e+00 0.0000000e+00 
6.7266667e+00 6.0300000e+00 0.0000000e+00 
6.7533333e+00 5.9700000e+00 0.0000000e+00 
6.7533333e+00 5.9900000e+00 0.0000000e+00 
6.7533333e+00 6.0100000e+00 0.0000000e+00 
6.7533333e+00 6.0300000e+00 0.0000000e+00 
6.7800000e+00 5.9700000e+00 0.0000000e+00 
6.7800000e+00 5.9900000e+00 0.0000000e+00 
6.7800000e+00 6.0100000e+00 0.0000000e+00 
6.7800000e+00 6.0300000e+00 0.0000000e+00 
6.8066667e+00 5.9700000e+00 0.0000000e+00 
6.8066667e+00 5.9900000e+00 0.0000000e+00 
6.8066667e+00 6.0100000e+00 0.0000000e+00 
6.8066667e+00 6.0300000e+00 0.0000000e+00 
6.8333333e+00 5.9700000e+00 0.0000000e+00 
6.8333333e+00 5.9900000e+00 0.0000000e+00 
6.8333333e+00 6.0100000e+00 0.0000000e+00 
6.8333333e+00 6.0300000e+00 0.0000000e+00 
6.8600000e+00 5.9700000e+00 0.0000000e+00 
6.8600000e+00 5.9900000e+00 0.0000000e+00 
6.8600000e+00 6.0100000e+00 0.0000000e+00 
6.8600000e+00 6.0300000e+00 0.0000000e+00 
6.8866667e+00 5.9700000e+00 0.0000000e+00 
6.8866667e+00 5.9900000e+00 0.0000000e+00 
6.8866667e+00 6.0100000e+00 0.0000000e+00 
6.8866667e+00 6.0300000e+00 0.0000000e+00 
6.9133333e+00 5.9700000e+00 0.0000000e+00 
6.9133333e+00 5.9900000e+00 0.0000000e+00 
6.9133333e+00 6.0100000e+00 0.0000000e+00 
6.9133333e+00 6.0300000e+00 0.0000000e+00 
6.9400000e+00 5.9700000e+00 0.0000000e+00 
6.9400000e+00 5.9900000e+00 0.0000000e+00 
6.9400000e+00 6.0100000e+00 0.0000000e+00 
6.9400000e+00 6.0300000e+00 0.0000000e+00 
6.9666667e+00 5.9700000e+00 0.0000000e+00 
6.9666667e+00 5.9900000e+00 0.0000000e+00 
6.9666667e+00 6.0100000e+00 0.0000000e+00 
6.9666667e+00 6.0300000e+00 0.0000000e+00 
6.9933333e+00 5.9700000e+00 0.0000000e+00 
6.9933333e+00 5.9900000e+00 0.0000000e+00 
6.9933333e+00 6.0100000e+00 0.0000000e+00 
6.9933333e+00 6.0300000e+00 0.0000000e+00 
7.0200000e+00 5.9700000e+00 0.0000000e+00 
7.0200000e+00 5.9900000e+00 0.0000000e+00 
[...]
POINT_DATA 604
FIELD FieldData 2
DISPLACEMENT 3 604  float
0.0000000e+00 0.0000000e+00 0.0000000e+00 
0.0000000e+00 0.0000000e+00 0.0000000e+00 
2.8702614e-04 1.7619234e-04 0.0000000e+00 
9.0139591e-05 1.1426623e-04 0.0000000e+00 
0.0000000e+00 0.0000000e+00 0.0000000e+00 
-9.3603433e-05 1.1291343e-04 0.0000000e+00 
5.7606066e-04 5.6634158e-04 0.0000000e+00 
1.8832346e-04 5.1225209e-04 0.0000000e+00 
0.0000000e+00 0.0000000e+00 0.0000000e+00 
-2.9124315e-04 1.7244423e-04 0.0000000e+00 
-2.0014653e-04 5.0789238e-04 0.0000000e+00 
8.5595186e-04 1.2257681e-03 0.0000000e+00 
-5.8981227e-04 5.5388457e-04 0.0000000e+00 
2.7499195e-04 1.1666196e-03 0.0000000e+00 
-3.0513577e-04 1.1576175e-03 0.0000000e+00 
-8.8912583e-04 1.1991291e-03 0.0000000e+00 
1.1234501e-03 2.1419299e-03 0.0000000e+00 
3.5331211e-04 2.0774200e-03 0.0000000e+00 
-4.1669047e-04 2.0620822e-03 0.0000000e+00 
-1.1907251e-03 2.0963456e-03 0.0000000e+00 
1.3764515e-03 3.3116090e-03 0.0000000e+00 
4.2026333e-04 3.2397818e-03 0.0000000e+00 
-5.3620093e-04 3.2163490e-03 0.0000000e+00 
-1.4971339e-03 3.2415612e-03 0.0000000e+00 
1.6128184e-03 4.7298397e-03 0.0000000e+00 
4.7380450e-04 4.6493199e-03 0.0000000e+00 
-6.6590831e-04 4.6163579e-03 0.0000000e+00 
-1.8104924e-03 4.6312246e-03 0.0000000e+00 
1.8305625e-03 6.3925112e-03 0.0000000e+00 
5.1187109e-04 6.3017314e-03 0.0000000e+00 
-8.0788382e-04 6.2576921e-03 0.0000000e+00 
-2.1327996e-03 6.2606209e-03 0.0000000e+00 
2.0277724e-03 8.2952291e-03 0.0000000e+00 
5.3263711e-04 8.1927053e-03 0.0000000e+00 
-9.6394134e-04 8.1361288e-03 0.0000000e+00 
-2.4660505e-03 8.1255906e-03 0.0000000e+00 
2.2027213e-03 1.0433295e-02 0.0000000e+00 
5.3427565e-04 1.0317899e-02 0.0000000e+00 
-1.1359614e-03 1.0247598e-02 0.0000000e+00 
-2.8120514e-03 1.0222574e-02 0.0000000e+00 
2.3536898e-03 1.2802810e-02 0.0000000e+00 
5.1509460e-04 1.2673114e-02 0.0000000e+00 
-1.3256224e-03 1.2587759e-02 0.0000000e+00 
-3.1724902e-03 1.2546720e-02 0.0000000e+00 
2.4791531e-03 1.5398991e-02 0.0000000e+00 
4.7351984e-04 1.5254036e-02 0.0000000e+00 
-1.5345355e-03 1.5152567e-02 0.0000000e+00 
-3.5490183e-03 1.5094673e-02 0.0000000e+00 
2.5775981e-03 1.8217993e-02 0.0000000e+00 
4.0806776e-04 1.8056496e-02 0.0000000e+00 
-1.7641775e-03 1.7937738e-02 0.0000000e+00 
-3.9431083e-03 1.7861601e-02 0.0000000e+00 
2.6477162e-03 2.1255070e-02 0.0000000e+00 
3.1736404e-04 2.1076223e-02 0.0000000e+00 
-2.0159660e-03 2.0939266e-02 0.0000000e+00 
-4.3562198e-03 2.0844204e-02 0.0000000e+00 
2.6881849e-03 2.4506442e-02 0.0000000e+00 
2.0011890e-04 2.4309100e-02 0.0000000e+00 
-2.2911814e-03 2.4152913e-02 0.0000000e+00 
-4.7896254e-03 2.4037676e-02 0.0000000e+00 
2.6978946e-03 2.7967407e-02 0.0000000e+00 
5.5149968e-05 2.7750907e-02 0.0000000e+00 
-2.5910565e-03 2.7574721e-02 0.0000000e+00 
-5.2446090e-03 2.7438772e-02 0.0000000e+00 
2.6757029e-03 3.1634257e-02 0.0000000e+00 
-1.1865002e-04 3.1397584e-02 0.0000000e+00 
-2.9166867e-03 3.1200500e-02 0.0000000e+00 
-5.7222532e-03 3.1042720e-02 0.0000000e+00 
2.6206872e-03 3.5502341e-02 0.0000000e+00 
-3.2228259e-04 3.5244968e-02 0.0000000e+00 
-3.2691307e-03 3.5026351e-02 0.0000000e+00 
-6.2236770e-03 3.4846338e-02 0.0000000e+00 
2.5318750e-03 3.9568026e-02 0.0000000e+00 
-5.5668377e-04 3.9289059e-02 0.0000000e+00 
-3.6493097e-03 3.9048136e-02 0.0000000e+00 
-6.7497832e-03 3.8844897e-02 0.0000000e+00 
2.4085185e-03 4.3826720e-02 0.0000000e+00 
-8.2268494e-04 4.3525757e-02 0.0000000e+00 
-4.0581186e-03 4.3262016e-02 0.0000000e+00 
-7.3015362e-03 4.3035274e-02 0.0000000e+00 
2.2497996e-03 4.8274862e-02 0.0000000e+00 
-1.1210591e-03 4.7951132e-02 0.0000000e+00 
-4.4963121e-03 4.7663912e-02 0.0000000e+00 
-7.8796752e-03 4.7412794e-02 0.0000000e+00 
2.0551306e-03 5.2907920e-02 0.0000000e+00 
-1.4524751e-03 5.2561130e-02 0.0000000e+00 
-4.9646340e-03 5.2250073e-02 0.0000000e+00 
-8.4850245e-03 5.1974399e-02 0.0000000e+00 
1.8239138e-03 5.7722297e-02 0.0000000e+00 
-1.8175963e-03 5.7351878e-02 0.0000000e+00 
-5.4637585e-03 5.7016455e-02 0.0000000e+00 
-9.1181672e-03 5.6715661e-02 0.0000000e+00 
1.5556129e-03 6.2714071e-02 0.0000000e+00 
-2.2168802e-03 6.2319531e-02 0.0000000e+00 
-5.9941467e-03 6.1959275e-02 0.0000000e+00 
-9.7797740e-03 6.1632808e-02 0.0000000e+00 
1.2498583e-03 6.7878994e-02 0.0000000e+00 
-2.6508317e-03 6.7460193e-02 0.0000000e+00 
-6.5564013e-03 6.7074896e-02 0.0000000e+00 
-1.0470404e-02 6.6722737e-02 0.0000000e+00 
9.0617998e-04 7.3213735e-02 0.0000000e+00 
-3.1198817e-03 7.2770155e-02 0.0000000e+00 
-7.1509132e-03 7.2359417e-02 0.0000000e+00 
-1.1190425e-02 7.1980951e-02 0.0000000e+00 
5.2434079e-04 7.8713988e-02 0.0000000e+00 
-3.6243535e-03 7.8245593e-02 0.0000000e+00 
-7.7780900e-03 7.7809265e-02 0.0000000e+00 
-1.1940351e-02 7.7404589e-02 0.0000000e+00 
1.0399951e-04 8.4376493e-02 0.0000000e+00 
-4.1645485e-03 8.3882856e-02 0.0000000e+00 
-8.4382064e-03 8.3420639e-02 0.0000000e+00 
-1.2720412e-02 8.2989224e-02 0.0000000e+00 
-3.5494995e-04 9.0197030e-02 0.0000000e+00 
-4.7406717e-03 8.9678204e-02 0.0000000e+00 
-9.1315533e-03 8.9190037e-02 0.0000000e+00 
-1.3531005e-02 8.8732067e-02 0.0000000e+00 
-8.5273585e-04 9.6172418e-02 0.0000000e+00 
-5.3529092e-03 9.5628063e-02 0.0000000e+00 
-9.8582886e-03 9.5113733e-02 0.0000000e+00 
-1.4372238e-02 9.4628767e-02 0.0000000e+00 
-1.3893487e-03 1.0229853e-01 0.0000000e+00 
-6.0013537e-03 1.0172877e-01 0.0000000e+00 
-1.0618594e-02 1.0118830e-01 0.0000000e+00 
-1.5244406e-02 1.0067660e-01 0.0000000e+00 
-1.9649123e-03 1.0857225e-01 0.0000000e+00 
-6.6860847e-03 1.0797684e-01 0.0000000e+00 
-1.1412518e-02 1.0741010e-01 0.0000000e+00 
-1.6147503e-02 1.0687131e-01 0.0000000e+00 
-2.5793106e-03 1.1498956e-01 0.0000000e+00 
-7.4070916e-03 1.1436870e-01 0.0000000e+00 
-1.2240144e-02 1.1377577e-01 0.0000000e+00 
-1.7081731e-02 1.1321022e-01 0.0000000e+00 
-3.2325714e-03 1.2154743e-01 0.0000000e+00 
-8.1643564e-03 1.2090093e-01 0.0000000e+00 
-1.3101421e-02 1.2028175e-01 0.0000000e+00 
-1.8046979e-02 1.1968917e-01 0.0000000e+00 
-3.9244816e-03 1.2824191e-01 0.0000000e+00 
-8.9577740e-03 1.2757004e-01 0.0000000e+00 
-1.3996337e-02 1.2692478e-01 0.0000000e+00 
-1.9043361e-02 1.2630556e-01 0.0000000e+00 
-4.6549857e-03 1.3507005e-01 0.0000000e+00 
-9.7872351e-03 1.3437270e-01 0.0000000e+00 
-1.4924751e-02 1.3370137e-01 0.0000000e+00 
-2.0070677e-02 1.3305530e-01 0.0000000e+00 
-5.4237846e-03 1.4202802e-01 0.0000000e+00 
-1.0652543e-02 1.4130551e-01 0.0000000e+00 
-1.5886571e-02 1.4060835e-01 0.0000000e+00 
-2.1128967e-02 1.3993586e-01 0.0000000e+00 
-6.2306650e-03 1.4911283e-01 0.0000000e+00 
-1.1553541e-02 1.4836519e-01 0.0000000e+00 
-1.6881638e-02 1.4764228e-01 0.0000000e+00 
-2.2217967e-02 1.4694343e-01 0.0000000e+00 
-7.0753700e-03 1.5632123e-01 0.0000000e+00 
-1.2489913e-02 1.5554856e-01 0.0000000e+00 
-1.7909648e-02 1.5480002e-01 0.0000000e+00 
-2.3337578e-02 1.5407483e-01 0.0000000e+00 
-7.9575077e-03 1.6364969e-01 0.0000000e+00 
-1.3461407e-02 1.6285237e-01 0.0000000e+00 
-1.8970463e-02 1.6207852e-01 0.0000000e+00 
-2.4487650e-02 1.6132750e-01 0.0000000e+00 
-8.8768480e-03 1.7109548e-01 0.0000000e+00 
-1.4467741e-02 1.7027354e-01 0.0000000e+00 
-2.0063751e-02 1.6947452e-01 0.0000000e+00 
-2.5667796e-02 1.6869761e-01 0.0000000e+00 
-9.8329174e-03 1.7865505e-01 0.0000000e+00 
-1.5508552e-02 1.7780893e-01 0.0000000e+00 
-2.1189245e-02 1.7698507e-01 0.0000000e+00 
-2.6877896e-02 1.7618284e-01 0.0000000e+00 
-1.0825421e-02 1.8632574e-01 0.0000000e+00 
-1.6583487e-02 1.8545551e-01 0.0000000e+00 
-2.2346562e-02 1.8460702e-01 0.0000000e+00 
-2.8117488e-02 1.8377944e-01 0.0000000e+00 
-1.1853817e-02 1.9410408e-01 0.0000000e+00 
-1.7692129e-02 1.9321023e-01 0.0000000e+00 
-2.3535381e-02 1.9233748e-01 0.0000000e+00 
-2.9386395e-02 1.9148516e-01 0.0000000e+00 
-1.2917761e-02 2.0198752e-01 0.0000000e+00 
-1.8834072e-02 2.0107016e-01 0.0000000e+00 
-2.4755263e-02 2.0017339e-01 0.0000000e+00 
-3.0684098e-02 1.9929636e-01 0.0000000e+00 
-1.4016658e-02 2.0997268e-01 0.0000000e+00 
-2.0008845e-02 2.0903233e-01 0.0000000e+00 
-2.6005834e-02 2.0811195e-01 0.0000000e+00 
-3.2010369e-02 2.0721085e-01 0.0000000e+00 
-1.5150114e-02 2.1805708e-01 0.0000000e+00 
-2.1215994e-02 2.1709390e-01 0.0000000e+00 
-2.7286606e-02 2.1615018e-01 0.0000000e+00 
-3.3364639e-02 2.1522507e-01 0.0000000e+00 
-1.6317489e-02 2.2623745e-01 0.0000000e+00 
-2.2455003e-02 2.2525197e-01 0.0000000e+00 
-2.8597163e-02 2.2428536e-01 0.0000000e+00 
-3.4746638e-02 2.2333693e-01 0.0000000e+00 
-1.7518349e-02 2.3451138e-01 0.0000000e+00 
-2.3725377e-02 2.3350381e-01 0.0000000e+00 
-2.9936974e-02 2.3251461e-01 0.0000000e+00 
-3.6155751e-02 2.3154294e-01 0.0000000e+00 
-1.8752012e-02 2.4287571e-01 0.0000000e+00 
-2.5026560e-02 2.4184660e-01 0.0000000e+00 
-3.1305582e-02 2.4083529e-01 0.0000000e+00 
-3.7591671e-02 2.3984107e-01 0.0000000e+00 
-2.0018015e-02 2.5132809e-01 0.0000000e+00 
-2.6358018e-02 2.5027768e-01 0.0000000e+00 
-3.2702417e-02 2.4924458e-01 0.0000000e+00 
-3.9053749e-02 2.4822795e-01 0.0000000e+00 
-2.1315641e-02 2.5986547e-01 0.0000000e+00 
-2.7719159e-02 2.5879433e-01 0.0000000e+00 
-3.4126995e-02 2.5773996e-01 0.0000000e+00 
-4.0541650e-02 2.5670162e-01 0.0000000e+00 
-2.2644321e-02 2.6848550e-01 0.0000000e+00 
-2.9109443e-02 2.6739394e-01 0.0000000e+00 
-3.5578776e-02 2.6631867e-01 0.0000000e+00 
-4.2054727e-02 2.6525894e-01 0.0000000e+00 
-2.4003446e-02 2.7718561e-01 0.0000000e+00 
-3.0528222e-02 2.7607401e-01 0.0000000e+00 
-3.7057119e-02 2.7497821e-01 0.0000000e+00 
-4.3592531e-02 2.7389738e-01 0.0000000e+00 
-2.5392292e-02 2.8596305e-01 0.0000000e+00 
-3.1974919e-02 2.8483198e-01 0.0000000e+00 
-3.8561566e-02 2.8371619e-01 0.0000000e+00 
-4.5154608e-02 2.8261498e-01 0.0000000e+00 
-2.6810350e-02 2.9481569e-01 0.0000000e+00 
-3.3448949e-02 2.9366544e-01 0.0000000e+00 
-4.0091478e-02 2.9253002e-01 0.0000000e+00 
-4.6740249e-02 2.9140861e-01 0.0000000e+00 
-2.8256851e-02 3.0374075e-01 0.0000000e+00 
-3.4949675e-02 3.0257191e-01 0.0000000e+00 
-4.1646318e-02 3.0141740e-01 0.0000000e+00 
-4.8349077e-02 3.0027653e-01 0.0000000e+00 
-2.9731263e-02 3.1273618e-01 0.0000000e+00 
-3.6476488e-02 3.1154905e-01 0.0000000e+00 
-4.3225441e-02 3.1037584e-01 0.0000000e+00 
-4.9980354e-02 3.0921570e-01 0.0000000e+00 
-3.1232795e-02 3.2179929e-01 0.0000000e+00 
-3.8028740e-02 3.2059449e-01 0.0000000e+00 
-4.4828297e-02 3.1940310e-01 0.0000000e+00 
-5.1633687e-02 3.1822445e-01 0.0000000e+00 
-3.2760908e-02 3.3092813e-01 0.0000000e+00 
-3.9605809e-02 3.2970596e-01 0.0000000e+00 
-4.6454228e-02 3.2849679e-01 0.0000000e+00 
-5.3308322e-02 3.2729982e-01 0.0000000e+00 
-3.4314797e-02 3.4012008e-01 0.0000000e+00 
-4.1207035e-02 3.3888116e-01 0.0000000e+00 
-4.8102673e-02 3.3765476e-01 0.0000000e+00 
-5.5003859e-02 3.3644023e-01 0.0000000e+00 
-3.5893917e-02 3.4937327e-01 0.0000000e+00 
-4.2831787e-02 3.4811791e-01 0.0000000e+00 
-4.9772965e-02 3.4687469e-01 0.0000000e+00 
-5.6719529e-02 3.4564280e-01 0.0000000e+00 
-3.7497453e-02 3.5868519e-01 0.0000000e+00 
-4.4479401e-02 3.5741401e-01 0.0000000e+00 
-5.1464536e-02 3.5615450e-01 0.0000000e+00 
-5.8454930e-02 3.5490602e-01 0.0000000e+00 
-3.9124858e-02 3.6805402e-01 0.0000000e+00 
-4.6149239e-02 3.6676735e-01 0.0000000e+00 
-5.3176714e-02 3.6549197e-01 0.0000000e+00 
-6.0209286e-02 3.6422710e-01 0.0000000e+00 
-4.0775314e-02 3.7747736e-01 0.0000000e+00 
-4.7840635e-02 3.7617580e-01 0.0000000e+00 
-5.4908929e-02 3.7488510e-01 0.0000000e+00 
-6.1982192e-02 3.7360461e-01 0.0000000e+00 
-4.2448278e-02 3.8695347e-01 0.0000000e+00 
-4.9552949e-02 3.8563736e-01 0.0000000e+00 
-5.6660504e-02 3.8433173e-01 0.0000000e+00 
-6.3772873e-02 3.8303583e-01 0.0000000e+00 
-4.4142931e-02 3.9648002e-01 0.0000000e+00 
-5.1285509e-02 3.9514996e-01 0.0000000e+00 
-5.8430875e-02 3.9382999e-01 0.0000000e+00 
-6.5580928e-02 3.9251941e-01 0.0000000e+00 
-4.5858655e-02 4.0605529e-01 0.0000000e+00 
-5.3037704e-02 4.0471166e-01 0.0000000e+00 
-6.0219425e-02 4.0337774e-01 0.0000000e+00 
-6.7405629e-02 4.0205287e-01 0.0000000e+00 
-4.7594787e-02 4.1567739e-01 0.0000000e+00 
-5.4808840e-02 4.1432059e-01 0.0000000e+00 
-6.2025471e-02 4.1297314e-01 0.0000000e+00 
-6.9246470e-02 4.1163431e-01 0.0000000e+00 
-4.9350562e-02 4.2534425e-01 0.0000000e+00 
-5.6598304e-02 4.2397487e-01 0.0000000e+00 
-6.3848516e-02 4.2261444e-01 0.0000000e+00 
-7.1102975e-02 4.2126237e-01 0.0000000e+00 
-5.1125467e-02 4.3505437e-01 0.0000000e+00 
-5.8405490e-02 4.3367272e-01 0.0000000e+00 
-6.5687896e-02 4.3229970e-01 0.0000000e+00 
-7.2974390e-02 4.3093458e-01 0.0000000e+00 
-5.2918710e-02 4.4480566e-01 0.0000000e+00 
-6.0229755e-02 4.4341232e-01 0.0000000e+00 
-6.7543067e-02 4.4202723e-01 0.0000000e+00 
-7.4860350e-02 4.4064981e-01 0.0000000e+00 
-5.4729784e-02 4.5459669e-01 0.0000000e+00 
-6.2070495e-02 4.5319197e-01 0.0000000e+00 
-6.9413390e-02 4.5179519e-01 0.0000000e+00 
-7.6760098e-02 4.5040566e-01 0.0000000e+00 
-5.6557905e-02 4.6442547e-01 0.0000000e+00 
-6.3927084e-02 4.6300994e-01 0.0000000e+00 
-7.1298332e-02 4.6160199e-01 0.0000000e+00 
-7.8673280e-02 4.6020106e-01 0.0000000e+00 
-5.8402581e-02 4.7429064e-01 0.0000000e+00 
-6.5798929e-02 4.7286460e-01 0.0000000e+00 
-7.3197267e-02 4.7144585e-01 0.0000000e+00 
-8.0599149e-02 4.7003370e-01 0.0000000e+00 
-6.0263038e-02 4.8419028e-01 0.0000000e+00 
-6.7685418e-02 4.8275430e-01 0.0000000e+00 
-7.5109676e-02 4.8132525e-01 0.0000000e+00 
-8.2537368e-02 4.7990260e-01 0.0000000e+00 
-6.2138803e-02 4.9412314e-01 0.0000000e+00 
-6.9585974e-02 4.9267749e-01 0.0000000e+00 
-7.7034947e-02 4.9123850e-01 0.0000000e+00 
-8.4487201e-02 4.8980551e-01 0.0000000e+00 
-6.4029118e-02 5.0408735e-01 0.0000000e+00 
-7.1500001e-02 5.0263259e-01 0.0000000e+00 
-7.8972578e-02 5.0118416e-01 0.0000000e+00 
-8.6448330e-02 4.9974153e-01 0.0000000e+00 
-6.5933525e-02 5.1408175e-01 0.0000000e+00 
-7.3426939e-02 5.1261815e-01 0.0000000e+00 
-8.0921975e-02 5.1116061e-01 0.0000000e+00 
-8.8420035e-02 5.0970851e-01 0.0000000e+00 
-6.7851286e-02 5.2410457e-01 0.0000000e+00 
-7.5366211e-02 5.2263266e-01 0.0000000e+00 
-8.2882653e-02 5.2116650e-01 0.0000000e+00 
-9.0402017e-02 5.1970559e-01 0.0000000e+00 
-6.9781967e-02 5.3415469e-01 0.0000000e+00 
-7.7317275e-02 5.3267474e-01 0.0000000e+00 
-8.4854036e-02 5.3120028e-01 0.0000000e+00 
-9.2393578e-02 5.2973072e-01 0.0000000e+00 
-7.1724850e-02 5.4423043e-01 0.0000000e+00 
-7.9279568e-02 5.4274296e-01 0.0000000e+00 
-8.6835663e-02 5.4126069e-01 0.0000000e+00 
-9.4394440e-02 5.3978311e-01 0.0000000e+00 
-7.3679442e-02 5.5433071e-01 0.0000000e+00 
-8.1252595e-02 5.5283599e-01 0.0000000e+00 
-8.8827034e-02 5.5134622e-01 0.0000000e+00 
-9.6403979e-02 5.4986094e-01 0.0000000e+00 
-7.5645208e-02 5.6445425e-01 0.0000000e+00 
-8.3235790e-02 5.6295260e-01 0.0000000e+00 
-9.0827594e-02 5.6145566e-01 0.0000000e+00 
-9.8421809e-02 5.5996289e-01 0.0000000e+00 
-7.7621512e-02 5.7459963e-01 0.0000000e+00 
-8.5228676e-02 5.7309152e-01 0.0000000e+00 
-9.2836978e-02 5.7158785e-01 0.0000000e+00 
-1.0044760e-01 5.7008820e-01 0.0000000e+00 
-7.9607992e-02 5.8476595e-01 0.0000000e+00 
-8.7230788e-02 5.8325160e-01 0.0000000e+00 
-9.4854667e-02 5.8174147e-01 0.0000000e+00 
-1.0248074e-01 5.8023506e-01 0.0000000e+00 
-8.1604002e-02 5.9495178e-01 0.0000000e+00 
-8.9241635e-02 5.9343163e-01 0.0000000e+00 
-9.6880264e-02 5.9191546e-01 0.0000000e+00 
-1.0452100e-01 5.9040288e-01 0.0000000e+00 
-8.3609199e-02 6.0515629e-01 0.0000000e+00 
-9.1260770e-02 6.0363055e-01 0.0000000e+00 
-9.8913292e-02 6.0210859e-01 0.0000000e+00 
-1.0656779e-01 6.0058992e-01 0.0000000e+00 
-8.5622957e-02 6.1537813e-01 0.0000000e+00 
-9.3287734e-02 6.1384723e-01 0.0000000e+00 
-1.0095338e-01 6.1231987e-01 0.0000000e+00 
-1.0862093e-01 6.1079570e-01 0.0000000e+00 
-8.7644964e-02 6.2561654e-01 0.0000000e+00 
-9.5322104e-02 6.2408066e-01 0.0000000e+00 
-1.0300007e-01 6.2254815e-01 0.0000000e+00 
-1.1067981e-01 6.2101854e-01 0.0000000e+00 
-8.9674619e-02 6.3587026e-01 0.0000000e+00 
-9.7363449e-02 6.3432982e-01 0.0000000e+00 
-1.0505303e-01 6.3279252e-01 0.0000000e+00 
-1.1274431e-01 6.3125802e-01 0.0000000e+00 
-9.1711638e-02 6.4613861e-01 0.0000000e+00 
-9.9411374e-02 6.4459377e-01 0.0000000e+00 
-1.0711182e-01 6.4305189e-01 0.0000000e+00 
-1.1481386e-01 6.4151256e-01 0.0000000e+00 
-9.3755449e-02 6.5642041e-01 0.0000000e+00 
-1.0146547e-01 6.5487155e-01 0.0000000e+00 
-1.0917614e-01 6.5332545e-01 0.0000000e+00 
-1.1688833e-01 6.5178182e-01 0.0000000e+00 
-9.5805797e-02 6.6671504e-01 0.0000000e+00 
-1.0352539e-01 6.6516231e-01 0.0000000e+00 
-1.1124559e-01 6.6361219e-01 0.0000000e+00 
-1.1896719e-01 6.6206428e-01 0.0000000e+00 
-9.7862137e-02 6.7702142e-01 0.0000000e+00 
-1.0559073e-01 6.7546517e-01 0.0000000e+00 
-1.1331987e-01 6.7391135e-01 0.0000000e+00 
-1.2105036e-01 6.7235967e-01 0.0000000e+00 
-9.9924246e-02 6.8733900e-01 0.0000000e+00 
-1.0766118e-01 6.8577936e-01 0.0000000e+00 
-1.1539863e-01 6.8422201e-01 0.0000000e+00 
-1.2313733e-01 6.8266658e-01 0.0000000e+00 
-1.0199161e-01 6.9766675e-01 0.0000000e+00 
-1.0973637e-01 6.9610407e-01 0.0000000e+00 
-1.1748160e-01 6.9454351e-01 0.0000000e+00 
-1.2522803e-01 6.9298479e-01 0.0000000e+00 
-1.0406397e-01 7.0800419e-01 0.0000000e+00 
-1.1181602e-01 7.0643860e-01 0.0000000e+00 
-1.1956851e-01 7.0487499e-01 0.0000000e+00 
-1.2732206e-01 7.0331311e-01 0.0000000e+00 
-1.0614100e-01 7.1835064e-01 0.0000000e+00 
-1.1389980e-01 7.1678229e-01 0.0000000e+00 
-1.2165901e-01 7.1521579e-01 0.0000000e+00 
-1.2941923e-01 7.1365085e-01 0.0000000e+00 
-1.0822228e-01 7.2870530e-01 0.0000000e+00 
-1.1598743e-01 7.2713449e-01 0.0000000e+00 
-1.2375295e-01 7.2556538e-01 0.0000000e+00 
-1.3151944e-01 7.2399779e-01 0.0000000e+00 
-1.1030769e-01 7.3906786e-01 0.0000000e+00 
-1.1807868e-01 7.3749465e-01 0.0000000e+00 
-1.2585004e-01 7.3592304e-01 0.0000000e+00 
-1.3362227e-01 7.3435277e-01 0.0000000e+00 
-1.1239679e-01 7.4943751e-01 0.0000000e+00 
-1.2017329e-01 7.4786217e-01 0.0000000e+00 
-1.2795009e-01 7.4628830e-01 0.0000000e+00 
-1.3572775e-01 7.4471575e-01 0.0000000e+00 
-1.1448948e-01 7.5981398e-01 0.0000000e+00 
-1.2227102e-01 7.5823656e-01 0.0000000e+00 
-1.3005287e-01 7.5666053e-01 0.0000000e+00 
-1.3783547e-01 7.5508565e-01 0.0000000e+00 
-1.1658536e-01 7.7019654e-01 0.0000000e+00 
-1.2437165e-01 7.6861729e-01 0.0000000e+00 
-1.3215820e-01 7.6703931e-01 0.0000000e+00 
-1.3994549e-01 7.6546247e-01 0.0000000e+00 
-1.1868435e-01 7.8058501e-01 0.0000000e+00 
-1.2647498e-01 7.7900395e-01 0.0000000e+00 
-1.3426587e-01 7.7742410e-01 0.0000000e+00 
-1.4205742e-01 7.7584523e-01 0.0000000e+00 
-1.2078608e-01 7.9097868e-01 0.0000000e+00 
-1.2858080e-01 7.8939606e-01 0.0000000e+00 
-1.3637576e-01 7.8781453e-01 0.0000000e+00 
-1.4417135e-01 7.8623398e-01 0.0000000e+00 
-1.2289050e-01 8.0137747e-01 0.0000000e+00 
-1.3068896e-01 7.9979328e-01 0.0000000e+00 
-1.3848766e-01 7.9821013e-01 0.0000000e+00 
-1.4628692e-01 7.9662782e-01 0.0000000e+00 
-1.2499727e-01 8.1178074e-01 0.0000000e+00 
-1.3279927e-01 8.1019520e-01 0.0000000e+00 
-1.4060147e-01 8.0861060e-01 0.0000000e+00 
-1.4840423e-01 8.0702685e-01 0.0000000e+00 
-1.2710637e-01 8.2218844e-01 0.0000000e+00 
-1.3491159e-01 8.2060153e-01 0.0000000e+00 
-1.4271704e-01 8.1901552e-01 0.0000000e+00 
-1.5052295e-01 8.1743024e-01 0.0000000e+00 
-1.2921747e-01 8.3260000e-01 0.0000000e+00 
-1.3702578e-01 8.3101193e-01 0.0000000e+00 
-1.4483426e-01 8.2942467e-01 0.0000000e+00 
-1.5264321e-01 8.2783815e-01 0.0000000e+00 
-1.3133060e-01 8.4301545e-01 0.0000000e+00 
-1.3914170e-01 8.4142617e-01 0.0000000e+00 
-1.4695301e-01 8.3983767e-01 0.0000000e+00 
-1.5476472e-01 8.3824982e-01 0.0000000e+00 
-1.3344545e-01 8.5343425e-01 0.0000000e+00 
-1.4125924e-01 8.5184395e-01 0.0000000e+00 
-1.4907321e-01 8.5025437e-01 0.0000000e+00 
-1.5688759e-01 8.4866544e-01 0.0000000e+00 
-1.3556201e-01 8.6385643e-01 0.0000000e+00 
-1.4337832e-01 8.6226510e-01 0.0000000e+00 
-1.5119480e-01 8.6067446e-01 0.0000000e+00 
-1.5901162e-01 8.5908443e-01 0.0000000e+00 
-1.3768017e-01 8.7428181e-01 0.0000000e+00 
-1.4549882e-01 8.7268946e-01 0.0000000e+00 