# vtk DataFile Version 4.0
vtk output
ASCII
DATASET UNSTRUCTURED_GRID
POINTS 604 float
5.5000000e+00 5.9700000e+00 0.0000000e+00 
5.5000000e+00 5.9900000e+00 0.0000000e+00 
5.5266667e+00 5.9700000e+00 0.0000000e+00 
5.5266667e+00 5.9900000e+00 0.0000000e+00 
5.5000000e+00 6.0100000e+00 0.0000000e+00 
5.5266667e+00 6.0100000e+00 0.0000000e+00 
5.5533333e+00 5.9700000e+00 0.0000000e+00 
5.5533333e+00 5.9900000e+00 0.0000000e+00 
5.5000000e+00 6.0300000e+00 0.0000000e+00 
5.5266667e+00 6.0300000e+00 0.0000000e+00 
5.5533333e+00 6.0100000e+00 0.0000000e+00 
5.5800000e+00 5.9700000e+00 0.0000000e+00 
5.5533333e+00 6.0300000e+00 0.0000000e+00 
5.5800000e+00 5.9900000e+00 0.0000000e+00 
5.5800000e+00 6.0100000e+00 0.0000000e+00 
5.5800000e+00 6.0300000e+00 0.0000000e+00 
5.6066667e+00 5.9700000e+00 0.0000000e+00 
5.6066667e+00 5.9900000e+00 0.0000000e+00 
5.6066667e+00 6.0100000e+00 0.0000000e+00 
5.6066667e+00 6.0300000e+00 0.0000000e+00 
5.6333333e+00 5.9700000e+00 0.0000000e+00 
5.6333333e+00 5.9900000e+00 0.0000000e+00 
5.6333333e+00 6.0100000e+00 0.0000000e+00 
5.6333333e+00 6.0300000e+00 0.0000000e+00 
5.6600000e+00 5.9700000e+00 0.0000000e+00 
5.6600000e+00 5.9900000e+00 0.0000000e+00 
5.6600000e+00 6.0100000e+00 0.0000000e+00 
5.6600000e+00 6.0300000e+00 0.0000000e+00 
5.6866667e+00 5.9700000e+00 0.0000000e+00 
5.6866667e+00 5.9900000e+00 0.0000000e+00 
5.6866667e+00 6.0100000e+00 0.0000000e+00 
5.6866667e+00 6.0300000e+00 0.0000000e+00 
5.7133333e+00 5.9700000e+00 0.0000000e+00 
5.7133333e+00 5.9900000e+00 0.0000000e+00 
5.7133333e+00 6.0100000e+00 0.0000000e+00 
5.7133333e+00 6.0300000e+00 0.0000000e+00 
5.7400000e+00 5.9700000e+00 0.0000000e+00 
5.7400000e+00 5.9900000e+00 0.0000000e+00 
5.7400000e+00 6.0100000e+00 0.0000000e+00 
5.7400000e+00 6.0300000e+00 0.0000000e+00 
5.7666667e+00 5.9700000e+00 0.0000000e+00 
5.7666667e+00 5.9900000e+00 0.0000000e+00 
5.7666667e+00 6.0100000e+00 0.0000000e+00 
5.7666667e+00 6.0300000e+00 0.0000000e+00 
5.7933333e+00 5.9700000e+00 0.0000000e+00 
5.7933333e+00 5.9900000e+00 0.0000000e+00 
5.7933333e+00 6.0100000e+00 0.0000000e+00 
5.7933333e+00 6.0300000e+00 0.0000000e+00 
5.8200000e+00 5.9700000e+00 0.0000000e+00 
5.8200000e+00 5.9900000e+00 0.0000000e+00 
5.8200000e+00 6.0100000e+00 0.0000000e+00 
5.8200000e+00 6.0300000e+00 0.0000000e+00 
5.8466667e+00 5.9700000e+00 0.0000000e+00 
5.8466667e+00 5.9900000e+00 0.0000000e+00 
5.8466667e+00 6.0100000e+00 0.0000000e+00 
5.8466667e+00 6.0300000e+00 0.0000000e+00 
5.8733333e+00 5.9700000e+00 0.0000000e+00 
5.8733333e+00 5.9900000e+00 0.0000000e+00 
5.8733333e+00 6.0100000e+00 0.0000000e+00 
5.8733333e+00 6.0300000e+00 0.0000000e+00 
5.9000000e+00 5.9700000e+00 0.0000000e+00 
5.9000000e+00 5.9900000e+00 0.0000000e+00 
5.9000000e+00 6.0100000e+00 0.0000000e+00 
5.9000000e+00 6.0300000e+00 0.0000000e+00 
5.9266667e+00 5.9700000e+00 0.0000000e+00 
5.9266667e+00 5.9900000e+00 0.0000000e+00 
5.9266667e+00 6.0100000e+00 0.0000000e+00 
5.9266667e+00 6.0300000e+00 0.0000000e+00 
5.9533333e+00 5.9700000e+00 0.0000000e+00 
5.9533333e+00 5.9900000e+00 0.0000000e+00 
5.9533333e+00 6.0100000e+00 0.0000000e+00 
5.9533333e+00 6.0300000e+00 0.0000000e+00 
5.9800000e+00 5.9700000e+00 0.0000000e+00 
5.9800000e+00 5.9900000e+00 0.0000000e+00 
5.9800000e+00 6.0100000e+00 0.0000000e+00 
5.9800000e+00 6.0300000e+00 0.0000000e+00 
6.0066667e+00 5.9700000e+00 0.0000000e+00 
6.0066667e+00 5.9900000e+00 0.0000000e+00 
6.0066667e+00 6.0100000e+00 0.0000000e+00 
6.0066667e+00 6.0300000e+00 0.0000000e+00 
6.0333333e+00 5.9700000e+00 0.0000000e+00 
6.0333333e+00 5.9900000e+00 0.0000000e+00 
6.0333333e+00 6.0100000e+00 0.0000000e+00 
6.0333333e+00 6.0300000e+00 0.0000000e+00 
6.0600000e+00 5.9700000e+00 0.0000000e+00 
6.0600000e+00 5.9900000e+00 0.0000000e+00 
6.0600000e+00 6.0100000e+00 0.0000000e+00 
6.0600000e+00 6.0300000e+00 0.0000000e+00 
6.0866667e+00 5.9700000e+00 0.0000000e+00 
6.0866667e+00 5.9900000e+00 0.0000000e+00 
6.0866667e+00 6.0100000e+00 0.0000000e+00 
6.0866667e+00 6.0300000e+00 0.0000000e+00 
6.1133333e+00 5.9700000e+00 0.0000000e+00 
6.1133333e+00 5.9900000e+00 0.0000000e+00 
6.1133333e+00 6.0100000e+00 0.0000000e+00 
6.1133333e+00 6.0300000e+00 0.0000000e+00 
6.1400000e+00 5.9700000e+00 0.0000000e+00 
6.1400000e+00 5.9900000e+00 0.0000000e+00 
6.1400000e+00 6.0100000e+00 0.0000000e+00 
6.1400000e+00 6.0300000e+00 0.0000000e+00 
6.1666667e+00 5.9700000e+00 0.0000000e+00 
6.1666667e+00 5.9900000e+00 0.0000000e+00 
6.1666667e+00 6.0100000e+00 0.0000000e+00 
6.1666667e+00 6.0300000e+00 0.0000000e+00 
6.1933333e+00 5.9700000e+00 0.0000000e+00 
6.1933333e+00 5.9900000e+00 0.0000000e+00 
6.1933333e+00 6.0100000e+00 0.0000000e+00 
6.1933333e+00 6.0300000e+00 0.0000000e+00 
6.2200000e+00 5.9700000e+00 0.0000000e+00 
6.2200000e+00 5.9900000e+00 0.0000000e+00 
6.2200000e+00 6.0100000e+00 0.0000000e+00 
6.2200000e+00 6.0300000e+00 0.0000000e+00 
6.2466667e+00 5.9700000e+00 0.0000000e+00 
6.2466667e+00 5.9900000e+00 0.0000000e+00 
6.2466667e+00 6.0100000e+00 0.0000000e+00 
6.2466667e+00 6.0300000e+00 0.0000000e+00 
6.2733333e+00 5.9700000e+00 0.0000000e+00 
6.2733333e+00 5.9900000e+00 0.0000000e+00 
6.2733333e+00 6.0100000e+00 0.0000000e+00 
6.2733333e+00 6.0300000e+00 0.0000000e+00 
6.3000000e+00 5.9700000e+00 0.0000000e+00 
6.3000000e+00 5.9900000e+00 0.0000000e+00 
6.3000000e+00 6.0100000e+00 0.0000000e+00 
6.3000000e+00 6.0300000e+00 0.0000000e+00 
6.3266667e+00 5.9700000e+00 0.0000000e+00 
6.3266667e+00 5.9900000e+00 0.0000000e+00 
6.3266667e+00 6.0100000e+00 0.0000000e+00 
6.3266667e+00 6.0300000e+00 0.0000000e+00 
6.3533333e+00 5.9700000e+00 0.0000000e+00 
6.3533333e+00 5.9900000e+00 0.0000000e+00 
6.3533333e+00 6.0100000e+00 0.0000000e+00 
6.3533333e+00 6.0300000e+00 0.0000000e+00 
6.3800000e+00 5.9700000e+00 0.0000000e+00 
6.3800000e+00 5.9900000e+00 0.0000000e+00 
6.3800000e+00 6.0100000e+00 0.0000000e+00 
6.3800000e+00 6.0300000e+00 0.0000000e+00 
6.4066667e+00 5.9700000e+00 0.0000000e+00 
6.4066667e+00 5.9900000e+00 0.0000000e+00 
6.4066667e+00 6.0100000e+00 0.0000000e+00 
6.4066667e+00 6.0300000e+00 0.0000000e+00 
6.4333333e+00 5.9700000e+00 0.0000000e+00 
6.4333333e+00 5.9900000e+00 0.0000000e+00 
6.4333333e+00 6.0100000e+00 0.0000000e+00 
6.4333333e+00 6.0300000e+00 0.0000000e+00 
6.4600000e+00 5.9700000e+00 0.0000000e+00 
6.4600000e+00 5.9900000e+00 0.0000000e+00 
6.4600000e+00 6.0100000e+00 0.0000000e+00 
6.4600000e+00 6.0300000e+00 0.0000000e+00 
6.4866667e+00 5.9700000e+00 0.0000000e+00 
6.4866667e+00 5.9900000e+00 0.0000000e+00 
6.4866667e+00 6.0100000e+00 0.0000000e+00 
6.4866667e+00 6.0300000e+00 0.0000000e+00 
6.5133333e+00 5.9700000e+00 0.0000000e+00 
6.5133333e+00 5.9900000e+00 0.0000000e+00 
6.5133333e+00 6.0100000e+00 0.0000000e+00 
6.5133333e+00 6.0300000e+00 0.0000000e+00 
6.5400000e+00 5.9700000e+00 0.0000000e+00 
6.5400000e+00 5.9900000e+00 0.0000000e+00 
6.5400000e+00 6.0100000e+00 0.0000000e+00 
6.5400000e+00 6.0300000e+00 0.0000000e+00 
6.5666667e+00 5.9700000e+00 0.0000000e+00 
6.5666667e+00 5.9900000e+00 0.0000000e+00 
6.5666667e+00 6.0100000e+00 0.0000000e+00 
6.5666667e+00 6.0300000e+00 0.0000000e+00 
6.5933333e+00 5.9700000e+00 0.0000000e+00 
6.5933333e+00 5.9900000e+00 0.0000000e+00 
6.5933333e+00 6.0100000e+00 0.0000000e+00 
6.5933333e+00 6.0300000e+00 0.0000000e+00 
6.6200000e+00 5.9700000e+00 0.0000000e+00 
6.6200000e+00 5.9900000e+00 0.0000000e+00 
6.6200000e+00 6.0100000e+00 0.0000000e+00 
6.6200000e+00 6.0300000e+00 0.0000000e+00 
6.6466667e+00 5.9700000e+00 0.0000000e+00 
6.6466667e+00 5.9900000e+00 0.0000000e+00 
6.6466667e+00 6.0100000e+00 0.0000000e+00 
6.6466667e+00 6.0300000e+00 0.0000000e+00 
6.6733333e+00 5.9700000e+00 0.0000000e+00 
6.6733333e+00 5.9900000e+00 0.0000000e+00 
6.6733333e+00 6.0100000e+00 0.0000000e+00 
6.6733333e+00 6.0300000e+00 0.0000000e+00 
6.7000000e+00 5.9700000e+00 0.0000000e+00 
6.7000000e+00 5.9900000e+00 0.0000000e+00 
6.7000000e+00 6.0100000e+00 0.0000000e+00 
6.7000000e+00 6.0300000e+00 0.0000000e+00 
6.7266667e+00 5.9700000e+00 0.0000000e+00 
6.7266667e+00 5.9900000e+00 0.0000000e+00 
6.7266667e+00 6.0100000e+00 0.0000000e+00 
6.7266667e+00 6.0300000e+00 0.0000000e+00 
6.7533333e+00 5.9700000e+00 0.0000000e+00 
6.7533333e+00 5.9900000e+00 0.0000000e+00 
6.7533333e+00 6.0100000e+00 0.0000000e+00 
6.7533333e+00 6.0300000e+00 0.0000000e+00 
6.7800000e+00 5.9700000e+00 0.0000000e+00 
6.7800000e+00 5.9900000e+00 0.0000000e+00 
6.7800000e+00 6.0100000e+00 0.0000000e+00 
6.7800000e+00 6.0300000e+00 0.0000000e+00 
6.8066667e+00 5.9700000e+00 0.0000000e+00 
6.8066667e+00 5.9900000e+00 0.0000000e+00 
6.8066667e+00 6.0100000e+00 0.0000000e+00 
6.8066667e+00 6.0300000e+00 0.0000000e+00 
6.8333333e+00 5.9700000e+00 0.0000000e+00 
6.8333333e+00 5.9900000e+00 0.0000000e+00 
6.8333333e+00 6.0100000e+00 0.0000000e+00 
6.8333333e+00 6.0300000e+00 0.0000000e+00 
6.8600000e+00 5.9700000e+00 0.0000000e+00 
6.8600000e+00 5.9900000e+00 0.0000000e+00 
6.8600000e+00 6.0100000e+00 0.0000000e+00 
6.8600000e+00 6.0300000e+00 0.0000000e+00 
6.8866667e+00 5.9700000e+00 0.0000000e+00 
6.8866667e+00 5.9900000e+00 0.0000000e+00 
6.8866667e+00 6.0100000e+00 0.0000000e+00 
6.8866667e+00 6.0300000e+00 0.0000000e+00 
6.9133333e+00 5.9700000e+00 0.0000000e+00 
6.9133333e+00 5.9900000e+00 0.0000000e+00 
6.9133333e+00 6.0100000e+00 0.0000000e+00 
6.9133333e+00 6.0300000e+00 0.0000000e+00 
6.9400000e+00 5.9700000e+00 0.0000000e+00 
6.9400000e+00 5.9900000e+00 0.0000000e+00 
6.9400000e+00 6.0100000e+00 0.0000000e+00 
6.9400000e+00 6.0300000e+00 0.0000000e+00 
6.9666667e+00 5.9700000e+00 0.0000000e+00 
6.9666667e+00 5.9900000e+00 0.0000000e+00 
6.9666667e+00 6.0100000e+00 0.0000000e+00 
6.9666667e+00 6.0300000e+00 0.0000000e+00 
6.9933333e+00 5.9700000e+00 0.0000000e+00 
6.9933333e+00 5.9900000e+00 0.0000000e+00 
6.9933333e+00 6.0100000e+00 0.0000000e+00 
6.9933333e+00 6.0300000e+00 0.0000000e+00 
7.0200000e+00 5.9700000e+00 0.0000000e+00 
7.0200000e+00 5.9900000e+00 0.0000000e+00 
[...]
POINT_DATA 604
FIELD FieldData 2
DISPLACEMENT 3 604  float
0.0000000e+00 0.0000000e+00 0.0000000e+00 
0.0000000e+00 0.0000000e+00 0.0000000e+00 
-7.3106941e-07 -4.3929461e-07 0.0000000e+00 
-2.3838464e-07 -2.8382829e-07 0.0000000e+00 
0.0000000e+00 0.0000000e+00 0.0000000e+00 
2.2351944e-07 -2.8332839e-07 0.0000000e+00 
-1.4763644e-06 -1.3902617e-06 0.0000000e+00 
-4.9975640e-07 -1.2748209e-06 0.0000000e+00 
0.0000000e+00 0.0000000e+00 0.0000000e+00 
7.2116901e-07 -4.3317775e-07 0.0000000e+00 
4.7738721e-07 -1.2817578e-06 0.0000000e+00 
-2.2118465e-06 -3.0473135e-06 0.0000000e+00 
1.4548729e-06 -1.4184702e-06 0.0000000e+00 
-7.4582853e-07 -2.9165995e-06 0.0000000e+00 
7.1483323e-07 -2.9174892e-06 0.0000000e+00 
2.1805825e-06 -3.0410155e-06 0.0000000e+00 
-2.9359978e-06 -5.3125908e-06 0.0000000e+00 
-9.9054043e-07 -5.1982530e-06 0.0000000e+00 
9.5027811e-07 -5.2044747e-06 0.0000000e+00 
2.8955823e-06 -5.3402002e-06 0.0000000e+00 
-3.6494834e-06 -8.2470034e-06 0.0000000e+00 
-1.2319120e-06 -8.1204327e-06 0.0000000e+00 
1.1816527e-06 -8.1205066e-06 0.0000000e+00 
3.6004086e-06 -8.2402922e-06 0.0000000e+00 
-4.3515451e-06 -1.1772676e-05 0.0000000e+00 
-1.4704235e-06 -1.1661049e-05 0.0000000e+00 
1.4089650e-06 -1.1669496e-05 0.0000000e+00 
4.2957838e-06 -1.1800670e-05 0.0000000e+00 
-5.0459167e-06 -1.5932116e-05 0.0000000e+00 
-1.7004368e-06 -1.5822188e-05 0.0000000e+00 
1.6379008e-06 -1.5830669e-05 0.0000000e+00 
4.9781112e-06 -1.5959934e-05 0.0000000e+00 
-5.7279844e-06 -2.0715629e-05 0.0000000e+00 
-1.9324070e-06 -2.0594677e-05 0.0000000e+00 
1.8580053e-06 -2.0594854e-05 0.0000000e+00 
5.6522325e-06 -2.0709424e-05 0.0000000e+00 
-6.4007450e-06 -2.6063621e-05 0.0000000e+00 
-2.1608186e-06 -2.5958167e-05 0.0000000e+00 
2.0748802e-06 -2.5964406e-05 0.0000000e+00 
6.3152796e-06 -2.6091030e-05 0.0000000e+00 
-7.0643881e-06 -3.2033758e-05 0.0000000e+00 
-2.3856951e-06 -3.1916309e-05 0.0000000e+00 
2.2885422e-06 -3.1917475e-05 0.0000000e+00 
6.9671891e-06 -3.2028457e-05 0.0000000e+00 
-7.7178560e-06 -3.8551353e-05 0.0000000e+00 
-2.6075138e-06 -3.8449519e-05 0.0000000e+00 
2.4985482e-06 -3.8455828e-05 0.0000000e+00 
7.6091469e-06 -3.8579030e-05 0.0000000e+00 
-8.3618313e-06 -4.5672747e-05 0.0000000e+00 
-2.8261727e-06 -4.5558990e-05 0.0000000e+00 
2.7050531e-06 -4.5560301e-05 0.0000000e+00 
8.2405965e-06 -4.5667974e-05 0.0000000e+00 
-8.9958482e-06 -5.3324172e-05 0.0000000e+00 
-3.0418336e-06 -5.3225826e-05 0.0000000e+00 
2.9079275e-06 -5.3232205e-05 0.0000000e+00 
8.8621368e-06 -5.3351944e-05 0.0000000e+00 
-9.6204809e-06 -6.1561228e-05 0.0000000e+00 
-3.2543823e-06 -6.1451166e-05 0.0000000e+00 
3.1073417e-06 -6.1452658e-05 0.0000000e+00 
9.4733231e-06 -6.1557118e-05 0.0000000e+00 
-1.0235348e-05 -7.0311257e-05 0.0000000e+00 
-3.4639632e-06 -7.0216409e-05 0.0000000e+00 
3.3031829e-06 -7.0222915e-05 0.0000000e+00 
1.0074674e-05 -7.0339293e-05 0.0000000e+00 
-1.0840890e-05 -7.9629038e-05 0.0000000e+00 
-3.6704889e-06 -7.9522656e-05 0.0000000e+00 
3.4955977e-06 -7.9524368e-05 0.0000000e+00 
1.0665882e-05 -7.9625695e-05 0.0000000e+00 
-1.1436873e-05 -8.9442893e-05 0.0000000e+00 
-3.8740642e-06 -8.9351563e-05 0.0000000e+00 
3.6845115e-06 -8.9358260e-05 0.0000000e+00 
1.1247317e-05 -8.9471390e-05 0.0000000e+00 
-1.2023582e-05 -9.9806948e-05 0.0000000e+00 
-4.0746274e-06 -9.9704242e-05 0.0000000e+00 
3.8700473e-06 -9.9706216e-05 0.0000000e+00 
1.1818833e-05 -9.9804501e-05 0.0000000e+00 
-1.2600990e-05 -1.1065047e-04 0.0000000e+00 
-4.2722569e-06 -1.1056258e-04 0.0000000e+00 
4.0521545e-06 -1.1056949e-04 0.0000000e+00 
1.2380590e-05 -1.1067938e-04 0.0000000e+00 
-1.3168678e-05 -1.2202695e-04 0.0000000e+00 
-4.4672100e-06 -1.2192808e-04 0.0000000e+00 
4.2306390e-06 -1.2192956e-04 0.0000000e+00 
1.2933142e-05 -1.2202506e-04 0.0000000e+00 
-1.3726354e-05 -1.3386581e-04 0.0000000e+00 
-4.6596217e-06 -1.3378063e-04 0.0000000e+00 
4.4053794e-06 -1.3378991e-04 0.0000000e+00 
1.3476905e-05 -1.3389592e-04 0.0000000e+00 
-1.4277059e-05 -1.4620565e-04 0.0000000e+00 
-4.8443406e-06 -1.4612227e-04 0.0000000e+00 
4.5816374e-06 -1.4613170e-04 0.0000000e+00 
1.4008970e-05 -1.4623626e-04 0.0000000e+00 
-1.4816361e-05 -1.5903816e-04 0.0000000e+00 
-5.0309335e-06 -1.5894469e-04 0.0000000e+00 
4.7498399e-06 -1.5894671e-04 0.0000000e+00 
1.4534021e-05 -1.5903788e-04 0.0000000e+00 
-1.5347783e-05 -1.7230835e-04 0.0000000e+00 
-5.2141927e-06 -1.7222946e-04 0.0000000e+00 
4.9152775e-06 -1.7223726e-04 0.0000000e+00 
1.5048639e-05 -1.7233992e-04 0.0000000e+00 
-1.5870476e-05 -1.8607028e-04 0.0000000e+00 
-5.3943562e-06 -1.8598019e-04 0.0000000e+00 
5.0777586e-06 -1.8598340e-04 0.0000000e+00 
1.5553825e-05 -1.8607157e-04 0.0000000e+00 
-1.6384525e-05 -2.0025401e-04 0.0000000e+00 
-5.5715969e-06 -2.0017887e-04 0.0000000e+00 
5.2371347e-06 -2.0018714e-04 0.0000000e+00 
1.6049576e-05 -2.0028722e-04 0.0000000e+00 
-1.6889422e-05 -2.1491370e-04 0.0000000e+00 
-5.7460678e-06 -2.1482712e-04 0.0000000e+00 
5.3933072e-06 -2.1483075e-04 0.0000000e+00 
1.6536558e-05 -2.1491616e-04 0.0000000e+00 
-1.7385881e-05 -2.2997883e-04 0.0000000e+00 
-5.9176352e-06 -2.2990732e-04 0.0000000e+00 
5.5464323e-06 -2.2991607e-04 0.0000000e+00 
1.7014127e-05 -2.3001355e-04 0.0000000e+00 
-1.7873252e-05 -2.4550437e-04 0.0000000e+00 
-6.0864624e-06 -2.4542130e-04 0.0000000e+00 
5.6964008e-06 -2.4542538e-04 0.0000000e+00 
1.7483093e-05 -2.4550809e-04 0.0000000e+00 
-1.8352337e-05 -2.6141929e-04 0.0000000e+00 
-6.2523993e-06 -2.6135143e-04 0.0000000e+00 
5.8433835e-06 -2.6136069e-04 0.0000000e+00 
1.7942719e-05 -2.6145565e-04 0.0000000e+00 
-1.8822390e-05 -2.7777935e-04 0.0000000e+00 
-6.4156356e-06 -2.7769974e-04 0.0000000e+00 
5.9872458e-06 -2.7770428e-04 0.0000000e+00 
1.8393910e-05 -2.7778434e-04 0.0000000e+00 
-1.9284303e-05 -2.9451283e-04 0.0000000e+00 
-6.5759976e-06 -2.9444860e-04 0.0000000e+00 
6.1281794e-06 -2.9445841e-04 0.0000000e+00 
1.8835840e-05 -2.9455092e-04 0.0000000e+00 
-1.9737265e-05 -3.1167642e-04 0.0000000e+00 
-6.7336854e-06 -3.1160027e-04 0.0000000e+00 
6.2660407e-06 -3.1160529e-04 0.0000000e+00 
1.9269473e-05 -3.1168276e-04 0.0000000e+00 
-2.0182266e-05 -3.2919780e-04 0.0000000e+00 
-6.8885289e-06 -3.2913708e-04 0.0000000e+00 
6.4010148e-06 -3.2914741e-04 0.0000000e+00 
1.9693883e-05 -3.2923741e-04 0.0000000e+00 
-2.0617874e-05 -3.4713444e-04 0.0000000e+00 
-7.0410467e-06 -3.4706192e-04 0.0000000e+00 
6.5326422e-06 -3.4706655e-04 0.0000000e+00 
2.0110654e-05 -3.4714169e-04 0.0000000e+00 
-2.1044660e-05 -3.6541273e-04 0.0000000e+00 
-7.1911510e-06 -3.6535466e-04 0.0000000e+00 
6.6610108e-06 -3.6536786e-04 0.0000000e+00 
2.0519275e-05 -3.6545458e-04 0.0000000e+00 
-2.1465200e-05 -3.8407516e-04 0.0000000e+00 
-7.3333761e-06 -3.8401903e-04 0.0000000e+00 
6.7916882e-06 -3.8403245e-04 0.0000000e+00 
2.0917305e-05 -3.8411817e-04 0.0000000e+00 
-2.1874768e-05 -4.0311498e-04 0.0000000e+00 
-7.4780942e-06 -4.0304749e-04 0.0000000e+00 
6.9142943e-06 -4.0305293e-04 0.0000000e+00 
2.1309679e-05 -4.0312431e-04 0.0000000e+00 
-2.2277650e-05 -4.2247310e-04 0.0000000e+00 
-7.6195784e-06 -4.2242146e-04 0.0000000e+00 
7.0346182e-06 -4.2243334e-04 0.0000000e+00 
2.1692183e-05 -4.2251778e-04 0.0000000e+00 
-2.2672392e-05 -4.4221092e-04 0.0000000e+00 
-7.7582436e-06 -4.4214652e-04 0.0000000e+00 
7.1522962e-06 -4.4215331e-04 0.0000000e+00 
2.2066421e-05 -4.4222202e-04 0.0000000e+00 
-2.3059513e-05 -4.6225229e-04 0.0000000e+00 
-7.8941579e-06 -4.6220429e-04 0.0000000e+00 
7.2672681e-06 -4.6221678e-04 0.0000000e+00 
2.2431922e-05 -4.6229915e-04 0.0000000e+00 
-2.3438097e-05 -4.8265949e-04 0.0000000e+00 
-8.0275902e-06 -4.8259832e-04 0.0000000e+00 
7.3793233e-06 -4.8260561e-04 0.0000000e+00 
2.2789751e-05 -4.8267188e-04 0.0000000e+00 
-2.3809200e-05 -5.0335506e-04 0.0000000e+00 
-8.1583110e-06 -5.0331054e-04 0.0000000e+00 
7.4886986e-06 -5.0332361e-04 0.0000000e+00 
2.3138898e-05 -5.0340381e-04 0.0000000e+00 
-2.4171889e-05 -5.2440271e-04 0.0000000e+00 
-8.2865692e-06 -5.2434476e-04 0.0000000e+00 
7.5952036e-06 -5.2435254e-04 0.0000000e+00 
2.3480450e-05 -5.2441640e-04 0.0000000e+00 
-2.4527185e-05 -5.4572391e-04 0.0000000e+00 
-8.4121492e-06 -5.4568282e-04 0.0000000e+00 
7.6990623e-06 -5.4569646e-04 0.0000000e+00 
2.3813428e-05 -5.4577452e-04 0.0000000e+00 
-2.4874183e-05 -5.6738358e-04 0.0000000e+00 
-8.5352991e-06 -5.6732881e-04 0.0000000e+00 
7.8000867e-06 -5.6733706e-04 0.0000000e+00 
2.4138903e-05 -5.6739855e-04 0.0000000e+00 
-2.5213879e-05 -5.8930216e-04 0.0000000e+00 
-8.6558070e-06 -5.8926446e-04 0.0000000e+00 
7.8984990e-06 -5.8927867e-04 0.0000000e+00 
2.4455922e-05 -5.8935462e-04 0.0000000e+00 
-2.5545421e-05 -6.1154578e-04 0.0000000e+00 
-8.7739049e-06 -6.1149415e-04 0.0000000e+00 
7.9941294e-06 -6.1150287e-04 0.0000000e+00 
2.4765513e-05 -6.1156204e-04 0.0000000e+00 
-2.5869808e-05 -6.3403407e-04 0.0000000e+00 
-8.8894128e-06 -6.3399956e-04 0.0000000e+00 
8.0871703e-06 -6.3401427e-04 0.0000000e+00 
2.5066722e-05 -6.3408799e-04 0.0000000e+00 
-2.6185597e-05 -6.5683406e-04 0.0000000e+00 
-9.0028998e-06 -6.5678576e-04 0.0000000e+00 
8.1771212e-06 -6.5679394e-04 0.0000000e+00 
2.5361183e-05 -6.5685106e-04 0.0000000e+00 
-2.6493209e-05 -6.7986398e-04 0.0000000e+00 
-9.1143097e-06 -6.7983166e-04 0.0000000e+00 
8.2640345e-06 -6.7984948e-04 0.0000000e+00 
2.5648528e-05 -6.7992005e-04 0.0000000e+00 
-2.6795789e-05 -7.0317379e-04 0.0000000e+00 
-9.2174461e-06 -7.0314322e-04 0.0000000e+00 
8.3542442e-06 -7.0316124e-04 0.0000000e+00 
2.5925793e-05 -7.0323092e-04 0.0000000e+00 
-2.7088053e-05 -7.2675750e-04 0.0000000e+00 
-9.3240531e-06 -7.2671368e-04 0.0000000e+00 
8.4359926e-06 -7.2672258e-04 0.0000000e+00 
2.6198552e-05 -7.2677631e-04 0.0000000e+00 
-2.7374564e-05 -7.5055019e-04 0.0000000e+00 
-9.4277001e-06 -7.5052380e-04 0.0000000e+00 
8.5158037e-06 -7.5053989e-04 0.0000000e+00 
2.6462350e-05 -7.5060865e-04 0.0000000e+00 
-2.7654084e-05 -7.7462279e-04 0.0000000e+00 
-9.5287840e-06 -7.7458163e-04 0.0000000e+00 
8.5933529e-06 -7.7459192e-04 0.0000000e+00 
2.6718652e-05 -7.7464323e-04 0.0000000e+00 
-2.7926828e-05 -7.9889151e-04 0.0000000e+00 
-9.6274695e-06 -7.9886831e-04 0.0000000e+00 
8.6684992e-06 -7.9888491e-04 0.0000000e+00 
2.6967337e-05 -7.9895185e-04 0.0000000e+00 
-2.8192194e-05 -8.2342790e-04 0.0000000e+00 
-9.7239881e-06 -8.2338955e-04 0.0000000e+00 
8.7410987e-06 -8.2340024e-04 0.0000000e+00 
2.7209240e-05 -8.2344938e-04 0.0000000e+00 
-2.8450993e-05 -8.4814716e-04 0.0000000e+00 
-9.8181736e-06 -8.4812692e-04 0.0000000e+00 
8.8113417e-06 -8.4814398e-04 0.0000000e+00 
2.7443660e-05 -8.4820899e-04 0.0000000e+00 
-2.8702616e-05 -8.7312206e-04 0.0000000e+00 
-9.9102322e-06 -8.7308645e-04 0.0000000e+00 
8.8791168e-06 -8.7309753e-04 0.0000000e+00 
2.7671443e-05 -8.7314458e-04 0.0000000e+00 
-2.8947839e-05 -8.9826710e-04 0.0000000e+00 
-1.0000014e-05 -8.9824976e-04 0.0000000e+00 
8.9445975e-06 -8.9826726e-04 0.0000000e+00 
2.7891940e-05 -8.9833039e-04 0.0000000e+00 
-2.9186075e-05 -9.2365606e-04 0.0000000e+00 
-1.0087725e-05 -9.2362313e-04 0.0000000e+00 
9.0076789e-06 -9.2363458e-04 0.0000000e+00 
2.8105979e-05 -9.2367958e-04 0.0000000e+00 
-2.9418088e-05 -9.4920277e-04 0.0000000e+00 
-1.0173215e-05 -9.4918824e-04 0.0000000e+00 
9.0685330e-06 -9.4920618e-04 0.0000000e+00 
2.8312936e-05 -9.4926747e-04 0.0000000e+00 
-2.9643326e-05 -9.7498199e-04 0.0000000e+00 
-1.0256679e-05 -9.7495167e-04 0.0000000e+00 
9.1270738e-06 -9.7496348e-04 0.0000000e+00 
2.8513602e-05 -9.7500651e-04 0.0000000e+00 
-2.9862582e-05 -1.0009071e-03 0.0000000e+00 
-1.0337992e-05 -1.0008952e-03 0.0000000e+00 
9.1834442e-06 -1.0009135e-03 0.0000000e+00 
2.8707336e-05 -1.0009728e-03 0.0000000e+00 
-3.0074622e-05 -1.0270536e-03 0.0000000e+00 
-1.0417722e-05 -1.0270261e-03 0.0000000e+00 
9.2371912e-06 -1.0270371e-03 0.0000000e+00 
2.8895604e-05 -1.0270785e-03 0.0000000e+00 
-3.0279628e-05 -1.0533337e-03 0.0000000e+00 
-1.0495874e-05 -1.0533232e-03 0.0000000e+00 
9.2883012e-06 -1.0533447e-03 0.0000000e+00 
2.9078387e-05 -1.0534012e-03 0.0000000e+00 
-3.0481300e-05 -1.0798040e-03 0.0000000e+00 
-1.0565655e-05 -1.0797949e-03 0.0000000e+00 
9.3437657e-06 -1.0798166e-03 0.0000000e+00 
2.9252183e-05 -1.0798723e-03 0.0000000e+00 
-3.0673877e-05 -1.1064597e-03 0.0000000e+00 
-1.0639903e-05 -1.1064358e-03 0.0000000e+00 
9.3907246e-06 -1.1064474e-03 0.0000000e+00 
2.9423153e-05 -1.1064860e-03 0.0000000e+00 
-3.0862166e-05 -1.1332320e-03 0.0000000e+00 
-1.0711615e-05 -1.1332266e-03 0.0000000e+00 
9.4363000e-06 -1.1332460e-03 0.0000000e+00 
2.9586678e-05 -1.1333013e-03 0.0000000e+00 
-3.1045039e-05 -1.1602001e-03 0.0000000e+00 
-1.0781183e-05 -1.1601782e-03 0.0000000e+00 
9.4801992e-06 -1.1601912e-03 0.0000000e+00 
2.9744098e-05 -1.1602277e-03 0.0000000e+00 
-3.1222522e-05 -1.1872747e-03 0.0000000e+00 
-1.0848812e-05 -1.1872718e-03 0.0000000e+00 
9.5222209e-06 -1.1872916e-03 0.0000000e+00 
2.9895528e-05 -1.1873455e-03 0.0000000e+00 
-3.1394138e-05 -1.2145354e-03 0.0000000e+00 
-1.0914727e-05 -1.2145157e-03 0.0000000e+00 
9.5622505e-06 -1.2145290e-03 0.0000000e+00 
3.0041640e-05 -1.2145638e-03 0.0000000e+00 
-3.1560572e-05 -1.2418920e-03 0.0000000e+00 
-1.0978759e-05 -1.2418915e-03 0.0000000e+00 
9.6004527e-06 -1.2419117e-03 0.0000000e+00 
3.0181878e-05 -1.2419641e-03 0.0000000e+00 
-3.1721316e-05 -1.2694255e-03 0.0000000e+00 
-1.1041108e-05 -1.2694079e-03 0.0000000e+00 
9.6367351e-06 -1.2694215e-03 0.0000000e+00 
3.0316932e-05 -1.2694546e-03 0.0000000e+00 
-3.1877009e-05 -1.2970447e-03 0.0000000e+00 
-1.1101617e-05 -1.2970465e-03 0.0000000e+00 
9.6712469e-06 -1.2970670e-03 0.0000000e+00 
3.0446272e-05 -1.2971179e-03 0.0000000e+00 
-3.2027161e-05 -1.3248317e-03 0.0000000e+00 
-1.1160485e-05 -1.3248161e-03 0.0000000e+00 
9.7038913e-06 -1.3248300e-03 0.0000000e+00 
3.0570568e-05 -1.3248615e-03 0.0000000e+00 
-3.2172380e-05 -1.3526945e-03 0.0000000e+00 
-1.1217552e-05 -1.3526986e-03 0.0000000e+00 
9.7348164e-06 -1.3527194e-03 0.0000000e+00 
3.0689299e-05 -1.3527689e-03 0.0000000e+00 
-3.2312219e-05 -1.3807163e-03 0.0000000e+00 
-1.1272999e-05 -1.3807028e-03 0.0000000e+00 
9.7639387e-06 -1.3807169e-03 0.0000000e+00 
3.0803086e-05 -1.3807467e-03 0.0000000e+00 
-3.2447291e-05 -1.4088044e-03 0.0000000e+00 
-1.1326696e-05 -1.4088105e-03 0.0000000e+00 
9.7913730e-06 -1.4088316e-03 0.0000000e+00 
3.0911385e-05 -1.4088795e-03 0.0000000e+00 
-3.2576431e-05 -1.4370428e-03 0.0000000e+00 
-1.1379229e-05 -1.4370315e-03 0.0000000e+00 
9.8166317e-06 -1.4370447e-03 0.0000000e+00 
3.1015537e-05 -1.4370732e-03 0.0000000e+00 
-3.2699534e-05 -1.4653374e-03 0.0000000e+00 
-1.1430625e-05 -1.4653443e-03 0.0000000e+00 
9.8396505e-06 -1.4653688e-03 0.0000000e+00 
3.1115697e-05 -1.4654141e-03 0.0000000e+00 
-3.2820822e-05 -1.4937516e-03 0.0000000e+00 
-1.1473419e-05 -1.4937597e-03 0.0000000e+00 
9.8680471e-06 -1.4937843e-03 0.0000000e+00 
3.1207792e-05 -1.4938290e-03 0.0000000e+00 
-3.2933948e-05 -1.5222817e-03 0.0000000e+00 
-1.1521635e-05 -1.5222732e-03 0.0000000e+00 
9.8877715e-06 -1.5222867e-03 0.0000000e+00 
3.1298444e-05 -1.5223129e-03 0.0000000e+00 
-3.3043835e-05 -1.5508540e-03 0.0000000e+00 
-1.1567623e-05 -1.5508653e-03 0.0000000e+00 
9.9065442e-06 -1.5508873e-03 0.0000000e+00 
3.1382804e-05 -1.5509319e-03 0.0000000e+00 
-3.3149567e-05 -1.5795564e-03 0.0000000e+00 
-1.1611750e-05 -1.5795494e-03 0.0000000e+00 
9.9240804e-06 -1.5795643e-03 0.0000000e+00 
3.1461994e-05 -1.5795887e-03 0.0000000e+00 
-3.3250781e-05 -1.6082929e-03 0.0000000e+00 
-1.1654288e-05 -1.6083063e-03 0.0000000e+00 
9.9401008e-06 -1.6083286e-03 0.0000000e+00 
3.1536411e-05 -1.6083721e-03 0.0000000e+00 
-3.3347311e-05 -1.6371518e-03 0.0000000e+00 
-1.1695414e-05 -1.6371464e-03 0.0000000e+00 
9.9545166e-06 -1.6371615e-03 0.0000000e+00 
3.1606436e-05 -1.6371845e-03 0.0000000e+00 
-3.3439491e-05 -1.6660359e-03 0.0000000e+00 
-1.1735009e-05 -1.6660513e-03 0.0000000e+00 
9.9674442e-06 -1.6660737e-03 0.0000000e+00 
3.1671778e-05 -1.6661160e-03 0.0000000e+00 
-3.3527170e-05 -1.6950351e-03 0.0000000e+00 
-1.1773219e-05 -1.6950313e-03 0.0000000e+00 
9.9788333e-06 -1.6950466e-03 0.0000000e+00 
3.1732815e-05 -1.6950681e-03 0.0000000e+00 
-3.3610617e-05 -1.7240511e-03 0.0000000e+00 
-1.1809947e-05 -1.7240682e-03 0.0000000e+00 
9.9887786e-06 -1.7240909e-03 0.0000000e+00 
3.1789337e-05 -1.7241319e-03 0.0000000e+00 
-3.3689736e-05 -1.7531747e-03 0.0000000e+00 
-1.1845336e-05 -1.7531726e-03 0.0000000e+00 
9.9972398e-06 -1.7531879e-03 0.0000000e+00 
3.1841680e-05 -1.7532080e-03 0.0000000e+00 
-3.3764758e-05 -1.7823072e-03 0.0000000e+00 
-1.1879299e-05 -1.7823261e-03 0.0000000e+00 
1.0004306e-05 -1.7823490e-03 0.0000000e+00 
3.1889690e-05 -1.7823888e-03 0.0000000e+00 
-3.3835668e-05 -1.8115403e-03 0.0000000e+00 
-1.1911957e-05 -1.8115397e-03 0.0000000e+00 
1.0009966e-05 -1.8115552e-03 0.0000000e+00 
3.1933635e-05 -1.8115739e-03 0.0000000e+00 
-3.3902700e-05 -1.8407748e-03 0.0000000e+00 
-1.1943267e-05 -1.8407951e-03 0.0000000e+00 
1.0014269e-05 -1.8408181e-03 0.0000000e+00 
3.1973381e-05 -1.8408566e-03 0.0000000e+00 
-3.3965094e-05 -1.8701030e-03 0.0000000e+00 
-1.1973779e-05 -1.8701041e-03 0.0000000e+00 
1.0016785e-05 -1.8701185e-03 0.0000000e+00 
3.2009949e-05 -1.8701362e-03 0.0000000e+00 
-3.4022303e-05 -1.8994246e-03 0.0000000e+00 
-1.2003634e-05 -1.8994450e-03 0.0000000e+00 
1.0017351e-05 -1.8994714e-03 0.0000000e+00 
3.2044013e-05 -1.8995074e-03 0.0000000e+00 
-3.4079301e-05 -1.9288094e-03 0.0000000e+00 
-1.2024807e-05 -1.9288306e-03 0.0000000e+00 
1.0024230e-05 -1.9288571e-03 0.0000000e+00 
3.2070839e-05 -1.9288926e-03 0.0000000e+00 
-3.4129379e-05 -1.9582546e-03 0.0000000e+00 
-1.2052350e-05 -1.9582577e-03 0.0000000e+00 
1.0022334e-05 -1.9582721e-03 0.0000000e+00 
3.2097622e-05 -1.9582880e-03 0.0000000e+00 
-3.4177474e-05 -1.9876829e-03 0.0000000e+00 
-1.2078143e-05 -1.9877068e-03 0.0000000e+00 
1.0019936e-05 -1.9877303e-03 0.0000000e+00 
3.2119639e-05 -1.9877661e-03 0.0000000e+00 
-3.4223138e-05 -2.0171899e-03 0.0000000e+00 
-1.2102497e-05 -2.0171938e-03 0.0000000e+00 
1.0016847e-05 -2.0172096e-03 0.0000000e+00 
3.2137629e-05 -2.0172241e-03 0.0000000e+00 
-3.4265572e-05 -2.0466746e-03 0.0000000e+00 
-1.2125809e-05 -2.0466999e-03 0.0000000e+00 
1.0012689e-05 -2.0467235e-03 0.0000000e+00 
3.2152584e-05 -2.0467586e-03 0.0000000e+00 
-3.4305117e-05 -2.0762327e-03 0.0000000e+00 
-1.2148207e-05 -2.0762377e-03 0.0000000e+00 
1.0007477e-05 -2.0762536e-03 0.0000000e+00 
3.2164450e-05 -2.0762670e-03 0.0000000e+00 
-3.4341722e-05 -2.1057628e-03 0.0000000e+00 
-1.2169664e-05 -2.1057893e-03 0.0000000e+00 
1.0001258e-05 -2.1058129e-03 0.0000000e+00 
3.2173487e-05 -2.1058472e-03 0.0000000e+00 
-3.4375744e-05 -2.1353615e-03 0.0000000e+00 
-1.2190275e-05 -2.1353674e-03 0.0000000e+00 
9.9940862e-06 -2.1353834e-03 0.0000000e+00 
3.2179628e-05 -2.1353958e-03 0.0000000e+00 
-3.4407057e-05 -2.1649269e-03 0.0000000e+00 
-1.2210035e-05 -2.1649544e-03 0.0000000e+00 
9.9859847e-06 -2.1649782e-03 0.0000000e+00 
3.2183224e-05 -2.1650116e-03 0.0000000e+00 
-3.4436076e-05 -2.1945566e-03 0.0000000e+00 
-1.2229036e-05 -2.1945634e-03 0.0000000e+00 
9.9770178e-06 -2.1945793e-03 0.0000000e+00 
3.2184142e-05 -2.1945909e-03 0.0000000e+00 
-3.4462621e-05 -2.2241483e-03 0.0000000e+00 
-1.2247279e-05 -2.2241767e-03 0.0000000e+00 
9.9671991e-06 -2.2242006e-03 0.0000000e+00 
3.2182804e-05 -2.2242333e-03 0.0000000e+00 
-3.4487195e-05 -2.2538003e-03 0.0000000e+00 
-1.2264832e-05 -2.2538079e-03 0.0000000e+00 
9.9566201e-06 -2.2538239e-03 0.0000000e+00 
3.2178985e-05 -2.2538346e-03 0.0000000e+00 
-3.4509605e-05 -2.2834103e-03 0.0000000e+00 
-1.2281737e-05 -2.2834394e-03 0.0000000e+00 
9.9452519e-06 -2.2834633e-03 0.0000000e+00 
3.2173127e-05 -2.2834952e-03 0.0000000e+00 
-3.4529571e-05 -2.3130772e-03 0.0000000e+00 
-1.2298515e-05 -2.3130857e-03 0.0000000e+00 
9.9327405e-06 -2.3131004e-03 0.0000000e+00 
3.2165775e-05 -2.3131107e-03 0.0000000e+00 
-3.4546040e-05 -2.3426975e-03 0.0000000e+00 
-1.2315411e-05 -2.3427259e-03 0.0000000e+00 
9.9188141e-06 -2.3427531e-03 0.0000000e+00 
3.2158244e-05 -2.3427830e-03 0.0000000e+00 