# vtk DataFile Version 4.0
vtk output
ASCII
DATASET UNSTRUCTURED_GRID
POINTS 604 float
5.5000000e+00 5.9700000e+00 0.0000000e+00 
5.5000000e+00 5.9900000e+00 0.0000000e+00 
5.5266667e+00 5.9700000e+00 0.0000000e+00 
5.5266667e+00 5.9900000e+00 0.0000000e+00 
5.5000000e+00 6.0100000e+00 0.0000000e+00 
5.5266667e+00 6.0100000e+00 0.0000000e+00 
5.5533333e+00 5.9700000e+00 0.0000000e+00 
5.5533333e+00 5.9900000e+00 0.0000000e+00 
5.5000000e+00 6.0300000e+00 0.0000000e+00 
5.5266667e+00 6.0300000e+00 0.0000000e+00 
5.5533333e+00 6.0100000e+00 0.0000000e+00 
5.5800000e+00 5.9700000e+00 0.0000000e+00 
5.5533333e+00 6.0300000e+00 0.0000000e+00 
5.5800000e+00 5.9900000e+00 0.0000000e+00 
5.5800000e+00 6.0100000e+00 0.0000000e+00 
5.5800000e+00 6.0300000e+00 0.0000000e+00 
5.6066667e+00 5.9700000e+00 0.0000000e+00 
5.6066667e+00 5.9900000e+00 0.0000000e+00 
5.6066667e+00 6.0100000e+00 0.0000000e+00 
5.6066667e+00 6.0300000e+00 0.0000000e+00 
5.6333333e+00 5.9700000e+00 0.0000000e+00 
5.6333333e+00 5.9900000e+00 0.0000000e+00 
5.6333333e+00 6.0100000e+00 0.0000000e+00 
5.6333333e+00 6.0300000e+00 0.0000000e+00 
5.6600000e+00 5.9700000e+00 0.0000000e+00 
5.6600000e+00 5.9900000e+00 0.0000000e+00 
5.6600000e+00 6.0100000e+00 0.0000000e+00 
5.6600000e+00 6.0300000e+00 0.0000000e+00 
5.6866667e+00 5.9700000e+00 0.0000000e+00 
5.6866667e+00 5.9900000e+00 0.0000000e+00 
5.6866667e+00 6.0100000e+00 0.0000000e+00 
5.6866667e+00 6.0300000e+00 0.0000000e+00 
5.7133333e+00 5.9700000e+00 0.0000000e+00 
5.7133333e+00 5.9900000e+00 0.0000000e+00 
5.7133333e+00 6.0100000e+00 0.0000000e+00 
5.7133333e+00 6.0300000e+00 0.0000000e+00 
5.7400000e+00 5.9700000e+00 0.0000000e+00 
5.7400000e+00 5.9900000e+00 0.0000000e+00 
5.7400000e+00 6.0100000e+00 0.0000000e+00 
5.7400000e+00 6.0300000e+00 0.0000000e+00 
5.7666667e+00 5.9700000e+00 0.0000000e+00 
5.7666667e+00 5.9900000e+00 0.0000000e+00 
5.7666667e+00 6.0100000e+00 0.0000000e+00 
5.7666667e+00 6.0300000e+00 0.0000000e+00 
5.7933333e+00 5.9700000e+00 0.0000000e+00 
5.7933333e+00 5.9900000e+00 0.0000000e+00 
5.7933333e+00 6.0100000e+00 0.0000000e+00 
5.7933333e+00 6.0300000e+00 0.0000000e+00 
5.8200000e+00 5.9700000e+00 0.0000000e+00 
5.8200000e+00 5.9900000e+00 0.0000000e+00 
5.8200000e+00 6.0100000e+00 0.0000000e+00 
5.8200000e+00 6.0300000e+00 0.0000000e+00 
5.8466667e+00 5.9700000e+00 0.0000000e+00 
5.8466667e+00 5.9900000e+00 0.0000000e+00 
5.8466667e+00 6.0100000e+00 0.0000000e+00 
5.8466667e+00 6.0300000e+00 0.0000000e+00 
5.8733333e+00 5.9700000e+00 0.0000000e+00 
5.8733333e+00 5.9900000e+00 0.0000000e+00 
5.8733333e+00 6.0100000e+00 0.0000000e+00 
5.8733333e+00 6.0300000e+00 0.0000000e+00 
5.9000000e+00 5.9700000e+00 0.0000000e+00 
5.9000000e+00 5.9900000e+00 0.0000000e+00 
5.9000000e+00 6.0100000e+00 0.0000000e+00 
5.9000000e+00 6.0300000e+00 0.0000000e+00 
5.9266667e+00 5.9700000e+00 0.0000000e+00 
5.9266667e+00 5.9900000e+00 0.0000000e+00 
5.9266667e+00 6.0100000e+00 0.0000000e+00 
5.9266667e+00 6.0300000e+00 0.0000000e+00 
5.9533333e+00 5.9700000e+00 0.0000000e+00 
5.9533333e+00 5.9900000e+00 0.0000000e+00 
5.9533333e+00 6.0100000e+00 0.0000000e+00 
5.9533333e+00 6.0300000e+00 0.0000000e+00 
5.9800000e+00 5.9700000e+00 0.0000000e+00 
5.9800000e+00 5.9900000e+00 0.0000000e+00 
5.9800000e+00 6.0100000e+00 0.0000000e+00 
5.9800000e+00 6.0300000e+00 0.0000000e+00 
6.0066667e+00 5.9700000e+00 0.0000000e+00 
6.0066667e+00 5.9900000e+00 0.0000000e+00 
6.0066667e+00 6.0100000e+00 0.0000000e+00 
6.0066667e+00 6.0300000e+00 0.0000000e+00 
6.0333333e+00 5.9700000e+00 0.0000000e+00 
6.0333333e+00 5.9900000e+00 0.0000000e+00 
6.0333333e+00 6.0100000e+00 0.0000000e+00 
6.0333333e+00 6.0300000e+00 0.0000000e+00 
6.0600000e+00 5.9700000e+00 0.0000000e+00 
6.0600000e+00 5.9900000e+00 0.0000000e+00 
6.0600000e+00 6.0100000e+00 0.0000000e+00 
6.0600000e+00 6.0300000e+00 0.0000000e+00 
6.0866667e+00 5.9700000e+00 0.0000000e+00 
6.0866667e+00 5.9900000e+00 0.0000000e+00 
6.0866667e+00 6.0100000e+00 0.0000000e+00 
6.0866667e+00 6.0300000e+00 0.0000000e+00 
6.1133333e+00 5.9700000e+00 0.0000000e+00 
6.1133333e+00 5.9900000e+00 0.0000000e+00 
6.1133333e+00 6.0100000e+00 0.0000000e+00 
6.1133333e+00 6.0300000e+00 0.0000000e+00 
6.1400000e+00 5.9700000e+00 0.0000000e+00 
6.1400000e+00 5.9900000e+00 0.0000000e+00 
6.1400000e+00 6.0100000e+00 0.0000000e+00 
6.1400000e+00 6.0300000e+00 0.0000000e+00 
6.1666667e+00 5.9700000e+00 0.0000000e+00 
6.1666667e+00 5.9900000e+00 0.0000000e+00 
6.1666667e+00 6.0100000e+00 0.0000000e+00 
6.1666667e+00 6.0300000e+00 0.0000000e+00 
6.1933333e+00 5.9700000e+00 0.0000000e+00 
6.1933333e+00 5.9900000e+00 0.0000000e+00 
6.1933333e+00 6.0100000e+00 0.0000000e+00 
6.1933333e+00 6.0300000e+00 0.0000000e+00 
6.2200000e+00 5.9700000e+00 0.0000000e+00 
6.2200000e+00 5.9900000e+00 0.0000000e+00 
6.2200000e+00 6.0100000e+00 0.0000000e+00 
6.2200000e+00 6.0300000e+00 0.0000000e+00 
6.2466667e+00 5.9700000e+00 0.0000000e+00 
6.2466667e+00 5.9900000e+00 0.0000000e+00 
6.2466667e+00 6.0100000e+00 0.0000000e+00 
6.2466667e+00 6.0300000e+00 0.0000000e+00 
6.2733333e+00 5.9700000e+00 0.0000000e+00 
6.2733333e+00 5.9900000e+00 0.0000000e+00 
6.2733333e+00 6.0100000e+00 0.0000000e+00 
6.2733333e+00 6.0300000e+00 0.0000000e+00 
6.3000000e+00 5.9700000e+00 0.0000000e+00 
6.3000000e+00 5.9900000e+00 0.0000000e+00 
6.3000000e+00 6.0100000e+00 0.0000000e+00 
6.3000000e+00 6.0300000e+00 0.0000000e+00 
6.3266667e+00 5.9700000e+00 0.0000000e+00 
6.3266667e+00 5.9900000e+00 0.0000000e+00 
6.3266667e+00 6.0100000e+00 0.0000000e+00 
6.3266667e+00 6.0300000e+00 0.0000000e+00 
6.3533333e+00 5.9700000e+00 0.0000000e+00 
6.3533333e+00 5.9900000e+00 0.0000000e+00 
6.3533333e+00 6.0100000e+00 0.0000000e+00 
6.3533333e+00 6.0300000e+00 0.0000000e+00 
6.3800000e+00 5.9700000e+00 0.0000000e+00 
6.3800000e+00 5.9900000e+00 0.0000000e+00 
6.3800000e+00 6.0100000e+00 0.0000000e+00 
6.3800000e+00 6.0300000e+00 0.0000000e+00 
6.4066667e+00 5.9700000e+00 0.0000000e+00 
6.4066667e+00 5.9900000e+00 0.0000000e+00 
6.4066667e+00 6.0100000e+00 0.0000000e+00 
6.4066667e+00 6.0300000e+00 0.0000000e+00 
6.4333333e+00 5.9700000e+00 0.0000000e+00 
6.4333333e+00 5.9900000e+00 0.0000000e+00 
6.4333333e+00 6.0100000e+00 0.0000000e+00 
6.4333333e+00 6.0300000e+00 0.0000000e+00 
6.4600000e+00 5.9700000e+00 0.0000000e+00 
6.4600000e+00 5.9900000e+00 0.0000000e+00 
6.4600000e+00 6.0100000e+00 0.0000000e+00 
6.4600000e+00 6.0300000e+00 0.0000000e+00 
6.4866667e+00 5.9700000e+00 0.0000000e+00 
6.4866667e+00 5.9900000e+00 0.0000000e+00 
6.4866667e+00 6.0100000e+00 0.0000000e+00 
6.4866667e+00 6.0300000e+00 0.0000000e+00 
6.5133333e+00 5.9700000e+00 0.0000000e+00 
6.5133333e+00 5.9900000e+00 0.0000000e+00 
6.5133333e+00 6.0100000e+00 0.0000000e+00 
6.5133333e+00 6.0300000e+00 0.0000000e+00 
6.5400000e+00 5.9700000e+00 0.0000000e+00 
6.5400000e+00 5.9900000e+00 0.0000000e+00 
6.5400000e+00 6.0100000e+00 0.0000000e+00 
6.5400000e+00 6.0300000e+00 0.0000000e+00 
6.5666667e+00 5.9700000e+00 0.0000000e+00 
6.5666667e+00 5.9900000e+00 0.0000000e+00 
6.5666667e+00 6.0100000e+00 0.0000000e+00 
6.5666667e+00 6.0300000e+00 0.0000000e+00 
6.5933333e+00 5.9700000e+00 0.0000000e+00 
6.5933333e+00 5.9900000e+00 0.0000000e+00 
6.5933333e+00 6.0100000e+00 0.0000000e+00 
6.5933333e+00 6.0300000e+00 0.0000000e+00 
6.6200000e+00 5.9700000e+00 0.0000000e+00 
6.6200000e+00 5.9900000e+00 0.0000000e+00 
6.6200000e+00 6.0100000e+00 0.0000000e+00 
6.6200000e+00 6.0300000e+00 0.0000000e+00 
6.6466667e+00 5.9700000e+00 0.0000000e+00 
6.6466667e+00 5.9900000e+00 0.0000000e+00 
6.6466667e+00 6.0100000e+00 0.0000000e+00 
6.6466667e+00 6.0300000e+00 0.0000000e+00 
6.6733333e+00 5.9700000e+00 0.0000000e+00 
6.6733333e+00 5.9900000e+00 0.0000000e+00 
6.6733333e+00 6.0100000e+00 0.0000000e+00 
6.6733333e+00 6.0300000e+00 0.0000000e+00 
6.7000000e+00 5.9700000e+00 0.0000000e+00 
6.7000000e+00 5.9900000e+00 0.0000000e+00 
6.7000000e+00 6.0100000e+00 0.0000000e+00 
6.7000000e+00 6.0300000e+00 0.0000000e+00 
6.7266667e+00 5.9700000e+00 0.0000000e+00 
6.7266667e+00 5.9900000e+00 0.0000000e+00 
6.7266667e+00 6.0100000e+00 0.0000000e+00 
6.7266667e+00 6.0300000e+00 0.0000000e+00 
6.7533333e+00 5.9700000e+00 0.0000000e+00 
6.7533333e+00 5.9900000e+00 0.0000000e+00 
6.7533333e+00 6.0100000e+00 0.0000000e+00 
6.7533333e+00 6.0300000e+00 0.0000000e+00 
6.7800000e+00 5.9700000e+00 0.0000000e+00 
6.7800000e+00 5.9900000e+00 0.0000000e+00 
6.7800000e+00 6.0100000e+00 0.0000000e+00 
6.7800000e+00 6.0300000e+00 0.0000000e+00 
6.8066667e+00 5.9700000e+00 0.0000000e+00 
6.8066667e+00 5.9900000e+00 0.0000000e+00 
6.8066667e+00 6.0100000e+00 0.0000000e+00 
6.8066667e+00 6.0300000e+00 0.0000000e+00 
6.8333333e+00 5.9700000e+00 0.0000000e+00 
6.8333333e+00 5.9900000e+00 0.0000000e+00 
6.8333333e+00 6.0100000e+00 0.0000000e+00 
6.8333333e+00 6.0300000e+00 0.0000000e+00 
6.8600000e+00 5.9700000e+00 0.0000000e+00 
6.8600000e+00 5.9900000e+00 0.0000000e+00 
6.8600000e+00 6.0100000e+00 0.0000000e+00 
6.8600000e+00 6.0300000e+00 0.0000000e+00 
6.8866667e+00 5.9700000e+00 0.0000000e+00 
6.8866667e+00 5.9900000e+00 0.0000000e+00 
6.8866667e+00 6.0100000e+00 0.0000000e+00 
6.8866667e+00 6.0300000e+00 0.0000000e+00 
6.9133333e+00 5.9700000e+00 0.0000000e+00 
6.9133333e+00 5.9900000e+00 0.0000000e+00 
6.9133333e+00 6.0100000e+00 0.0000000e+00 
6.9133333e+00 6.0300000e+00 0.0000000e+00 
6.9400000e+00 5.9700000e+00 0.0000000e+00 
6.9400000e+00 5.9900000e+00 0.0000000e+00 
6.9400000e+00 6.0100000e+00 0.0000000e+00 
6.9400000e+00 6.0300000e+00 0.0000000e+00 
6.9666667e+00 5.9700000e+00 0.0000000e+00 
6.9666667e+00 5.9900000e+00 0.0000000e+00 
6.9666667e+00 6.0100000e+00 0.0000000e+00 
6.9666667e+00 6.0300000e+00 0.0000000e+00 
6.9933333e+00 5.9700000e+00 0.0000000e+00 
6.9933333e+00 5.9900000e+00 0.0000000e+00 
6.9933333e+00 6.0100000e+00 0.0000000e+00 
6.9933333e+00 6.0300000e+00 0.0000000e+00 
7.0200000e+00 5.9700000e+00 0.0000000e+00 
7.0200000e+00 5.9900000e+00 0.0000000e+00 
[...]
POINT_DATA 604
FIELD FieldData 2
DISPLACEMENT 3 604  float
0.0000000e+00 0.0000000e+00 0.0000000e+00 
0.0000000e+00 0.0000000e+00 0.0000000e+00 
5.8136761e-05 3.7559575e-05 0.0000000e+00 
1.8476476e-05 2.5353021e-05 0.0000000e+00 
0.0000000e+00 0.0000000e+00 0.0000000e+00 
-1.7768036e-05 2.5341888e-05 0.0000000e+00 
1.1484500e-04 1.1456760e-04 0.0000000e+00 
3.8081644e-05 1.0618479e-04 0.0000000e+00 
0.0000000e+00 0.0000000e+00 0.0000000e+00 
-5.8058029e-05 3.7073743e-05 0.0000000e+00 
-3.7737818e-05 1.0686507e-04 0.0000000e+00 
1.6818050e-04 2.4572878e-04 0.0000000e+00 
-1.1466939e-04 1.1739159e-04 0.0000000e+00 
5.5508013e-05 2.3600334e-04 0.0000000e+00 
-5.5773630e-05 2.3587072e-04 0.0000000e+00 
-1.6852736e-04 2.4437680e-04 0.0000000e+00 
2.1806825e-04 4.1941531e-04 0.0000000e+00 
7.1787331e-05 4.1155113e-04 0.0000000e+00 
-7.3135834e-05 4.1176750e-04 0.0000000e+00 
-2.1949841e-04 4.2101375e-04 0.0000000e+00 
2.6436719e-04 6.4014436e-04 0.0000000e+00 
8.6713023e-05 6.3108916e-04 0.0000000e+00 
-8.9714389e-05 6.3039847e-04 0.0000000e+00 
-2.6765513e-04 6.3732259e-04 0.0000000e+00 
3.0714453e-04 8.9785476e-04 0.0000000e+00 
1.0027256e-04 8.9046039e-04 0.0000000e+00 
-1.0557692e-04 8.9040094e-04 0.0000000e+00 
-3.1317015e-04 8.9791617e-04 0.0000000e+00 
3.4662742e-04 1.1952244e-03 0.0000000e+00 
1.1182468e-04 1.1880830e-03 0.0000000e+00 
-1.2136903e-04 1.1877249e-03 0.0000000e+00 
-3.5568820e-04 1.1944170e-03 0.0000000e+00 
3.8225933e-04 1.5294977e-03 0.0000000e+00 
1.2248464e-04 1.5211823e-03 0.0000000e+00 
-1.3597585e-04 1.5196212e-03 0.0000000e+00 
-3.9578754e-04 1.5240275e-03 0.0000000e+00 
4.1463558e-04 1.8923863e-03 0.0000000e+00 
1.3162909e-04 1.8858222e-03 0.0000000e+00 
-1.5005458e-04 1.8846231e-03 0.0000000e+00 
-4.3317788e-04 1.8897363e-03 0.0000000e+00 
4.4339022e-04 2.2885249e-03 0.0000000e+00 
1.3929726e-04 2.2806425e-03 0.0000000e+00 
-1.6356809e-04 2.2785663e-03 0.0000000e+00 
-4.6783089e-04 2.2812564e-03 0.0000000e+00 
4.6884907e-04 2.7078085e-03 0.0000000e+00 
1.4550308e-04 2.7017438e-03 0.0000000e+00 
-1.7650072e-04 2.6999624e-03 0.0000000e+00 
-4.9991613e-04 2.7034368e-03 0.0000000e+00 
4.9064760e-04 3.1549497e-03 0.0000000e+00 
1.5030315e-04 3.1475541e-03 0.0000000e+00 
-1.8881881e-04 3.1449117e-03 0.0000000e+00 
-5.2930782e-04 3.1459596e-03 0.0000000e+00 
5.0925270e-04 3.6197409e-03 0.0000000e+00 
1.5368720e-04 3.6142216e-03 0.0000000e+00 
-2.0052326e-04 3.6119198e-03 0.0000000e+00 
-5.5612437e-04 3.6138180e-03 0.0000000e+00 
5.2424772e-04 4.1070460e-03 0.0000000e+00 
1.5572959e-04 4.1002162e-03 0.0000000e+00 
-2.1156862e-04 4.0970930e-03 0.0000000e+00 
-5.8020252e-04 4.0965948e-03 0.0000000e+00 
5.3616689e-04 4.6065688e-03 0.0000000e+00 
1.5642751e-04 4.6016903e-03 0.0000000e+00 
-2.2194100e-04 4.5989718e-03 0.0000000e+00 
-6.0167722e-04 4.5994052e-03 0.0000000e+00 
5.4454992e-04 5.1233077e-03 0.0000000e+00 
1.5587098e-04 5.1171543e-03 0.0000000e+00 
-2.3158591e-04 5.1136677e-03 0.0000000e+00 
-6.2034454e-04 5.1117500e-03 0.0000000e+00 
5.4998830e-04 5.6468763e-03 0.0000000e+00 
1.5406084e-04 5.6427609e-03 0.0000000e+00 
-2.4047778e-04 5.6397563e-03 0.0000000e+00 
-6.3636011e-04 5.6388625e-03 0.0000000e+00 
5.5198499e-04 6.1824017e-03 0.0000000e+00 
1.5109716e-04 6.1770606e-03 0.0000000e+00 
-2.4855931e-04 6.1733508e-03 0.0000000e+00 
-6.4947815e-04 6.1701644e-03 0.0000000e+00 
5.5118093e-04 6.7194350e-03 0.0000000e+00 
1.4698464e-04 6.7162073e-03 0.0000000e+00 
-2.5579209e-04 6.7130586e-03 0.0000000e+00 
-6.5987651e-04 6.7109770e-03 0.0000000e+00 
5.4697685e-04 7.2631911e-03 0.0000000e+00 
1.4186709e-04 7.2588353e-03 0.0000000e+00 
-2.6208145e-04 7.2549488e-03 0.0000000e+00 
-6.6734112e-04 7.2506781e-03 0.0000000e+00 
5.3998342e-04 7.8030911e-03 0.0000000e+00 
1.3577839e-04 7.8008041e-03 0.0000000e+00 
-2.6738461e-04 7.7979469e-03 0.0000000e+00 
-6.7213512e-04 7.7947399e-03 0.0000000e+00 
5.3023891e-04 8.3425867e-03 0.0000000e+00 
1.2811357e-04 8.3408845e-03 0.0000000e+00 
-2.7230990e-04 8.3380799e-03 0.0000000e+00 
-6.7364450e-04 8.3344489e-03 0.0000000e+00 
5.1722676e-04 8.8790855e-03 0.0000000e+00 
1.2017612e-04 8.8764347e-03 0.0000000e+00 
-2.7555879e-04 8.8727427e-03 0.0000000e+00 
-6.7239659e-04 8.8671259e-03 0.0000000e+00 
5.0186953e-04 9.4039008e-03 0.0000000e+00 
1.1132898e-04 9.4035730e-03 0.0000000e+00 
-2.7777990e-04 9.4007535e-03 0.0000000e+00 
-6.6816235e-04 9.3964642e-03 0.0000000e+00 
4.8351612e-04 9.9226074e-03 0.0000000e+00 
1.0168611e-04 9.9212514e-03 0.0000000e+00 
-2.7890129e-04 9.9179683e-03 0.0000000e+00 
-6.6063136e-04 9.9116170e-03 0.0000000e+00 
4.6282281e-04 1.0424513e-02 0.0000000e+00 
9.1266277e-05 1.0425591e-02 0.0000000e+00 
-2.7883414e-04 1.0423152e-02 0.0000000e+00 
-6.5017921e-04 1.0418250e-02 0.0000000e+00 
4.3916998e-04 1.0915214e-02 0.0000000e+00 
8.0183060e-05 1.0915296e-02 0.0000000e+00 
-2.7755594e-04 1.0912446e-02 0.0000000e+00 
-6.3640410e-04 1.0905518e-02 0.0000000e+00 
4.1328816e-04 1.1383969e-02 0.0000000e+00 
6.8406995e-05 1.1386543e-02 0.0000000e+00 
-2.7501179e-04 1.1384592e-02 0.0000000e+00 
-6.1966009e-04 1.1379182e-02 0.0000000e+00 
3.8453435e-04 1.1836445e-02 0.0000000e+00 
5.6044936e-05 1.1838060e-02 0.0000000e+00 
-2.7120138e-04 1.1835742e-02 0.0000000e+00 
-5.9952886e-04 1.1828348e-02 0.0000000e+00 
3.5363840e-04 1.2261902e-02 0.0000000e+00 
4.3053905e-05 1.2266044e-02 0.0000000e+00 
-2.6607063e-04 1.2264662e-02 0.0000000e+00 
-5.7641220e-04 1.2258833e-02 0.0000000e+00 
3.1994174e-04 1.2666043e-02 0.0000000e+00 
2.9534320e-05 1.2669246e-02 0.0000000e+00 
-2.5964330e-04 1.2667522e-02 0.0000000e+00 
-5.4987634e-04 1.2659736e-02 0.0000000e+00 
2.8416803e-04 1.3038156e-02 0.0000000e+00 
1.5425531e-05 1.3043891e-02 0.0000000e+00 
-2.5186967e-04 1.3043120e-02 0.0000000e+00 
-5.2037213e-04 1.3036924e-02 0.0000000e+00 
2.4564864e-04 1.3383962e-02 0.0000000e+00 
8.1783665e-07 1.3388761e-02 0.0000000e+00 
-2.4280328e-04 1.3387651e-02 0.0000000e+00 
-4.8745260e-04 1.3379507e-02 0.0000000e+00 
2.0509777e-04 1.3692831e-02 0.0000000e+00 
-1.4367717e-05 1.3700122e-02 0.0000000e+00 
-2.3239767e-04 1.3699948e-02 0.0000000e+00 
-4.5161655e-04 1.3693375e-02 0.0000000e+00 
1.6176751e-04 1.3970466e-02 0.0000000e+00 
-3.0013840e-05 1.3976836e-02 0.0000000e+00 
-2.2070062e-04 1.3976196e-02 0.0000000e+00 
-4.1247917e-04 1.3967702e-02 0.0000000e+00 
1.1627752e-04 1.4206256e-02 0.0000000e+00 
-4.6190774e-05 1.4214923e-02 0.0000000e+00 
-2.0767504e-04 1.4215560e-02 0.0000000e+00 
-3.7064797e-04 1.4208469e-02 0.0000000e+00 
6.8560737e-05 1.4404050e-02 0.0000000e+00 
-6.3566094e-05 1.4413411e-02 0.0000000e+00 
-1.9408378e-04 1.4414267e-02 0.0000000e+00 
-3.2540328e-04 1.4406923e-02 0.0000000e+00 
1.8050880e-05 1.4561371e-02 0.0000000e+00 
-8.0910996e-05 1.4569818e-02 0.0000000e+00 
-1.7870630e-04 1.4569848e-02 0.0000000e+00 
-2.7741130e-04 1.4560640e-02 0.0000000e+00 
-3.4424618e-05 1.4669858e-02 0.0000000e+00 
-9.8985514e-05 1.4680547e-02 0.0000000e+00 
-1.6226961e-04 1.4681447e-02 0.0000000e+00 
-2.2676553e-04 1.4673632e-02 0.0000000e+00 
-8.9576305e-05 1.4735273e-02 0.0000000e+00 
-1.1775683e-04 1.4744821e-02 0.0000000e+00 
-1.4491759e-04 1.4745171e-02 0.0000000e+00 
-1.7305992e-04 1.4735266e-02 0.0000000e+00 
-1.4689331e-04 1.4747429e-02 0.0000000e+00 
-1.3735553e-04 1.4759098e-02 0.0000000e+00 
-1.2660177e-04 1.4760086e-02 0.0000000e+00 
-1.1706014e-04 1.4751489e-02 0.0000000e+00 
-2.0703234e-04 1.4711988e-02 0.0000000e+00 
-1.5775823e-04 1.4722368e-02 0.0000000e+00 
-1.0754014e-04 1.4722666e-02 0.0000000e+00 
-5.8300525e-05 1.4711848e-02 0.0000000e+00 
-2.6946150e-04 1.4618927e-02 0.0000000e+00 
-1.7916084e-04 1.4631226e-02 0.0000000e+00 
-8.7732428e-05 1.4631990e-02 0.0000000e+00 
2.4672922e-06 1.4622316e-02 0.0000000e+00 
-3.3483175e-04 1.4473880e-02 0.0000000e+00 
-2.0156140e-04 1.4484718e-02 0.0000000e+00 
-6.7441678e-05 1.4484621e-02 0.0000000e+00 
6.5693184e-05 1.4472578e-02 0.0000000e+00 
-4.0266472e-04 1.4267036e-02 0.0000000e+00 
-2.2518414e-04 1.4279545e-02 0.0000000e+00 
-4.6679909e-05 1.4279701e-02 0.0000000e+00 
1.3057350e-04 1.4268596e-02 0.0000000e+00 
-4.7360031e-04 1.4003974e-02 0.0000000e+00 
-2.5004661e-04 1.4014815e-02 0.0000000e+00 
-2.5753102e-05 1.4013897e-02 0.0000000e+00 
1.9754279e-04 1.4000242e-02 0.0000000e+00 
-5.4721513e-04 1.3675127e-02 0.0000000e+00 
-2.7640338e-04 1.3687343e-02 0.0000000e+00 
-4.6874603e-06 1.3686426e-02 0.0000000e+00 
2.6574978e-04 1.3673460e-02 0.0000000e+00 
-6.2413451e-04 1.3286007e-02 0.0000000e+00 
-3.0429311e-04 1.3296308e-02 0.0000000e+00 
1.6166528e-05 1.3294067e-02 0.0000000e+00 
3.3561294e-04 1.3278337e-02 0.0000000e+00 
-7.0398829e-04 1.2827330e-02 0.0000000e+00 
-3.3399944e-04 1.2838656e-02 0.0000000e+00 
3.6771267e-05 1.2836117e-02 0.0000000e+00 
4.0623904e-04 1.2820771e-02 0.0000000e+00 
-7.8744993e-04 1.2304529e-02 0.0000000e+00 
-3.6554654e-04 1.2313682e-02 0.0000000e+00 
5.6764487e-05 1.2309440e-02 0.0000000e+00 
4.7796836e-04 1.2291117e-02 0.0000000e+00 
-8.7427704e-04 1.1708532e-02 0.0000000e+00 
-3.9922861e-04 1.1718213e-02 0.0000000e+00 
7.6101417e-05 1.1713664e-02 0.0000000e+00 
5.4982296e-04 1.1695281e-02 0.0000000e+00 
-9.6459146e-04 1.1043103e-02 0.0000000e+00 
-4.3576714e-04 1.1051751e-02 0.0000000e+00 
9.3812659e-05 1.1045833e-02 0.0000000e+00 
6.2238999e-04 1.1025673e-02 0.0000000e+00 
-1.0590247e-03 1.0306352e-02 0.0000000e+00 
-4.7427965e-04 1.0312408e-02 0.0000000e+00 
1.1077263e-04 1.0304029e-02 0.0000000e+00 
6.9480872e-04 1.0280591e-02 0.0000000e+00 
-1.1571408e-03 9.4914982e-03 0.0000000e+00 
-5.1564631e-04 9.4975131e-03 0.0000000e+00 
1.2619839e-04 9.4880147e-03 0.0000000e+00 
7.6661905e-04 9.4640242e-03 0.0000000e+00 
-1.2595274e-03 8.6038649e-03 0.0000000e+00 
-5.5998451e-04 8.6068114e-03 0.0000000e+00 
1.3963079e-04 8.5948230e-03 0.0000000e+00 
8.3810282e-04 8.5670741e-03 0.0000000e+00 
-1.3661194e-03 7.6352606e-03 0.0000000e+00 
-6.0764510e-04 7.6377298e-03 0.0000000e+00 
1.5101557e-04 7.6241065e-03 0.0000000e+00 
9.0820209e-04 7.5954174e-03 0.0000000e+00 
-1.4774444e-03 6.5908626e-03 0.0000000e+00 
-6.5875485e-04 6.5898381e-03 0.0000000e+00 
1.5983647e-04 6.5733077e-03 0.0000000e+00 
9.7723074e-04 6.5404722e-03 0.0000000e+00 
-1.5934347e-03 5.4627661e-03 0.0000000e+00 
-7.1372092e-04 5.4607567e-03 0.0000000e+00 
1.6599331e-04 5.4421324e-03 0.0000000e+00 
1.0441696e-03 5.4079067e-03 0.0000000e+00 
-1.7145940e-03 4.2560893e-03 0.0000000e+00 
-7.7268752e-04 4.2501442e-03 0.0000000e+00 
1.6893479e-04 4.2281703e-03 0.0000000e+00 
1.1092989e-03 4.1893966e-03 0.0000000e+00 
-1.8409121e-03 2.9632512e-03 0.0000000e+00 
-8.3608218e-04 2.9557817e-03 0.0000000e+00 
1.6855130e-04 2.9312275e-03 0.0000000e+00 
1.1715798e-03 2.8905845e-03 0.0000000e+00 
-1.9728659e-03 1.5892992e-03 0.0000000e+00 
-9.0406160e-04 1.5774239e-03 0.0000000e+00 
1.6426243e-04 1.5490500e-03 0.0000000e+00 
1.2312640e-03 1.5034327e-03 0.0000000e+00 
-2.1104972e-03 1.2698297e-04 0.0000000e+00 
-9.7707202e-04 1.1301806e-04 0.0000000e+00 
1.5595056e-04 8.1553618e-05 0.0000000e+00 
1.2872990e-03 3.3564817e-05 0.0000000e+00 
-2.2542531e-03 -1.4187136e-03 0.0000000e+00 
-1.0552810e-03 -1.4375764e-03 0.0000000e+00 
1.4300826e-04 -1.4733529e-03 0.0000000e+00 
1.3399120e-03 -1.5267615e-03 0.0000000e+00 
-2.4042189e-03 -3.0546883e-03 0.0000000e+00 
-1.1391486e-03 -3.0762370e-03 0.0000000e+00 
1.2531553e-04 -3.1156378e-03 0.0000000e+00 
1.3880425e-03 -3.1719521e-03 0.0000000e+00 
-2.5608621e-03 -4.7760256e-03 0.0000000e+00 
-1.2288216e-03 -4.8029638e-03 0.0000000e+00 
1.0226473e-04 -4.8472535e-03 0.0000000e+00 
1.4318509e-03 -4.9094153e-03 0.0000000e+00 
-2.7243662e-03 -6.5893285e-03 0.0000000e+00 
-1.3247658e-03 -6.6196511e-03 0.0000000e+00 
7.3749749e-05 -6.6678585e-03 0.0000000e+00 
1.4702407e-03 -6.7335460e-03 0.0000000e+00 
-2.8948299e-03 -8.4910208e-03 0.0000000e+00 
-1.4276683e-03 -8.5260811e-03 0.0000000e+00 
3.8715156e-05 -8.5791623e-03 0.0000000e+00 
1.5035695e-03 -8.6499753e-03 0.0000000e+00 
-3.0728734e-03 -1.0482002e-02 0.0000000e+00 
-1.5370005e-03 -1.0523177e-02 0.0000000e+00 
-2.3185138e-06 -1.0582148e-02 0.0000000e+00 
1.5308950e-03 -1.0659378e-02 0.0000000e+00 
-3.2583926e-03 -1.2566846e-02 0.0000000e+00 
-1.6536340e-03 -1.2612275e-02 0.0000000e+00 
-5.0075579e-05 -1.2676174e-02 0.0000000e+00 
1.5515871e-03 -1.2757690e-02 0.0000000e+00 
-3.4517558e-03 -1.4740713e-02 0.0000000e+00 
-1.7777452e-03 -1.4792849e-02 0.0000000e+00 
-1.0519473e-04 -1.4862860e-02 0.0000000e+00 
1.5657493e-03 -1.4951388e-02 0.0000000e+00 
-3.6532253e-03 -1.7009160e-02 0.0000000e+00 
-1.9097885e-03 -1.7066116e-02 0.0000000e+00 
-1.6776072e-04 -1.7141676e-02 0.0000000e+00 
1.5723108e-03 -1.7235001e-02 0.0000000e+00 
-3.8631126e-03 -1.9367457e-02 0.0000000e+00 
-2.0499337e-03 -1.9431650e-02 0.0000000e+00 
-2.3842406e-04 -1.9513839e-02 0.0000000e+00 
1.5714150e-03 -1.9614656e-02 0.0000000e+00 
-4.0816484e-03 -2.1820842e-02 0.0000000e+00 
-2.1986560e-03 -2.1890450e-02 0.0000000e+00 
-3.1728819e-04 -2.1978727e-02 0.0000000e+00 
1.5620595e-03 -2.2084869e-02 0.0000000e+00 
-4.3091105e-03 -2.4364620e-02 0.0000000e+00 
-2.3561177e-03 -2.4441971e-02 0.0000000e+00 
-4.0500495e-04 -2.4537379e-02 0.0000000e+00 
1.5443757e-03 -2.4651464e-02 0.0000000e+00 
-4.5457427e-03 -2.7003678e-02 0.0000000e+00 
-2.5227843e-03 -2.7087025e-02 0.0000000e+00 
-5.0166257e-04 -2.7189045e-02 0.0000000e+00 
1.5173811e-03 -2.7308969e-02 0.0000000e+00 
-4.7917886e-03 -2.9733365e-02 0.0000000e+00 
-2.6988039e-03 -2.9824946e-02 0.0000000e+00 
-6.0790601e-04 -2.9934580e-02 0.0000000e+00 
1.4812047e-03 -3.0062882e-02 0.0000000e+00 
-5.0474956e-03 -3.2558222e-02 0.0000000e+00 
-2.8846290e-03 -3.2656358e-02 0.0000000e+00 
-7.2380503e-04 -3.2773106e-02 0.0000000e+00 
1.4348902e-03 -3.2907738e-02 0.0000000e+00 
-5.3130719e-03 -3.5473636e-02 0.0000000e+00 
-3.0803902e-03 -3.5580469e-02 0.0000000e+00 
-8.4999335e-04 -3.5705290e-02 0.0000000e+00 
1.3785713e-03 -3.5848709e-02 0.0000000e+00 
-5.5887579e-03 -3.8483790e-02 0.0000000e+00 
-3.2865207e-03 -3.8597716e-02 0.0000000e+00 
-9.8651642e-04 -3.8730127e-02 0.0000000e+00 
1.3113224e-03 -3.8880350e-02 0.0000000e+00 
-5.8747630e-03 -4.1584117e-02 0.0000000e+00 
-3.5031079e-03 -4.1707162e-02 0.0000000e+00 
-1.1339764e-03 -4.1848123e-02 0.0000000e+00 
1.2332550e-03 -4.2007481e-02 0.0000000e+00 
-6.1713587e-03 -4.4778487e-02 0.0000000e+00 
-3.7305655e-03 -4.4909195e-02 0.0000000e+00 
-1.2923734e-03 -4.5058004e-02 0.0000000e+00 
1.1434548e-03 -4.5224651e-02 0.0000000e+00 
-6.4785208e-03 -4.8063321e-02 0.0000000e+00 
-3.9693526e-03 -4.8202674e-02 0.0000000e+00 
-1.4625893e-03 -4.8360021e-02 0.0000000e+00 
1.0422193e-03 -4.8535244e-02 0.0000000e+00 
-6.7966657e-03 -5.1438320e-02 0.0000000e+00 
-4.2190803e-03 -5.1587332e-02 0.0000000e+00 
-1.6442406e-03 -5.1753971e-02 0.0000000e+00 
9.2878459e-04 -5.1938698e-02 0.0000000e+00 
-7.1256862e-03 -5.4905688e-02 0.0000000e+00 
-4.4803699e-03 -5.5063000e-02 0.0000000e+00 
-1.8377772e-03 -5.5238190e-02 0.0000000e+00 
8.0263029e-04 -5.5430724e-02 0.0000000e+00 
-7.4656981e-03 -5.8460888e-02 0.0000000e+00 
-4.7532427e-03 -5.8628214e-02 0.0000000e+00 
-2.0437300e-03 -5.8812768e-02 0.0000000e+00 
6.6390573e-04 -5.9015163e-02 0.0000000e+00 
-7.8168717e-03 -6.2106744e-02 0.0000000e+00 
-5.0380081e-03 -6.2282695e-02 0.0000000e+00 
-2.2620095e-03 -6.2476160e-02 0.0000000e+00 
5.1181148e-04 -6.2686641e-02 0.0000000e+00 
-8.1792762e-03 -6.5838791e-02 0.0000000e+00 
-5.3346524e-03 -6.6025023e-02 0.0000000e+00 
-2.4931082e-03 -6.6228102e-02 0.0000000e+00 
3.4656828e-04 -6.6448654e-02 0.0000000e+00 
-8.5530056e-03 -6.9659560e-02 0.0000000e+00 
-5.6434655e-03 -6.9854714e-02 0.0000000e+00 
-2.7369201e-03 -7.0066951e-02 0.0000000e+00 
1.6746424e-04 -7.0295825e-02 0.0000000e+00 
-8.9380935e-03 -7.3564595e-02 0.0000000e+00 
-5.9643953e-03 -7.3770227e-02 0.0000000e+00 
-2.9938995e-03 -7.3992267e-02 0.0000000e+00 
-2.5248713e-05 -7.4231353e-02 0.0000000e+00 
-9.3345892e-03 -7.7556118e-02 0.0000000e+00 
-6.2976904e-03 -7.7770904e-02 0.0000000e+00 
-3.2638976e-03 -7.8002286e-02 0.0000000e+00 
-2.3223406e-04 -7.8249867e-02 0.0000000e+00 
-9.7424919e-03 -8.1629689e-02 0.0000000e+00 
-6.6432552e-03 -8.1855087e-02 0.0000000e+00 
-3.5473245e-03 -8.2096395e-02 0.0000000e+00 
-4.5320013e-04 -8.2354266e-02 0.0000000e+00 
-1.0161800e-02 -8.5787234e-02 0.0000000e+00 
-7.0012949e-03 -8.6021947e-02 0.0000000e+00 
-3.8439863e-03 -8.6272713e-02 0.0000000e+00 
-6.8875932e-04 -8.6539187e-02 0.0000000e+00 
-1.0592479e-02 -9.0024319e-02 0.0000000e+00 
-7.3716685e-03 -9.0269710e-02 0.0000000e+00 
-4.1542467e-03 -9.0530459e-02 0.0000000e+00 
-9.3857383e-04 -9.0807232e-02 0.0000000e+00 
-1.1034468e-02 -9.4342584e-02 0.0000000e+00 
-7.7545352e-03 -9.4597385e-02 0.0000000e+00 
-4.4778631e-03 -9.4867637e-02 0.0000000e+00 
-1.2032043e-03 -9.5153059e-02 0.0000000e+00 
-1.1487725e-02 -9.8737602e-02 0.0000000e+00 
-8.1496903e-03 -9.9003069e-02 0.0000000e+00 
-4.8151404e-03 -9.9283323e-02 0.0000000e+00 
-1.4822864e-03 -9.9578960e-02 0.0000000e+00 
-1.1952167e-02 -1.0321077e-01 0.0000000e+00 
-8.5572516e-03 -1.0348571e-01 0.0000000e+00 
-5.1657734e-03 -1.0377531e-01 0.0000000e+00 
-1.7763383e-03 -1.0407960e-01 0.0000000e+00 
-1.2427575e-02 -1.0775832e-01 0.0000000e+00 
-8.9772568e-03 -1.0804322e-01 0.0000000e+00 
-5.5302018e-03 -1.0834246e-01 0.0000000e+00 
-2.0848347e-03 -1.0865619e-01 0.0000000e+00 
-1.2913986e-02 -1.1237877e-01 0.0000000e+00 
-9.4091975e-03 -1.1267418e-01 0.0000000e+00 
-5.9079160e-03 -1.1298340e-01 0.0000000e+00 
-2.4080977e-03 -1.1330702e-01 0.0000000e+00 
-1.3410966e-02 -1.1707235e-01 0.0000000e+00 
-9.8532527e-03 -1.1737710e-01 0.0000000e+00 
-6.2989071e-03 -1.1769556e-01 0.0000000e+00 
-2.7463004e-03 -1.1802762e-01 0.0000000e+00 
-1.3918388e-02 -1.2183456e-01 0.0000000e+00 
-1.0309097e-02 -1.2214962e-01 0.0000000e+00 
-6.7033346e-03 -1.2247767e-01 0.0000000e+00 
-3.0989650e-03 -1.2281944e-01 0.0000000e+00 
-1.4435978e-02 -1.2666604e-01 0.0000000e+00 
-1.0776701e-02 -1.2699021e-01 0.0000000e+00 
-7.1207657e-03 -1.2732732e-01 0.0000000e+00 
-3.4664417e-03 -1.2767727e-01 0.0000000e+00 
-1.4963582e-02 -1.3156236e-01 0.0000000e+00 
-1.1255692e-02 -1.3189656e-01 0.0000000e+00 
-7.5512987e-03 -1.3224296e-01 0.0000000e+00 
-3.8481684e-03 -1.3260230e-01 0.0000000e+00 
-1.5500839e-02 -1.3652395e-01 0.0000000e+00 
-1.1746008e-02 -1.3686699e-01 0.0000000e+00 
-7.9944718e-03 -1.3722213e-01 0.0000000e+00 
-4.2444091e-03 -1.3758935e-01 0.0000000e+00 
-1.6047569e-02 -1.4154639e-01 0.0000000e+00 
-1.2247230e-02 -1.4189910e-01 0.0000000e+00 
-8.4503305e-03 -1.4226317e-01 0.0000000e+00 
-4.6545538e-03 -1.4263937e-01 0.0000000e+00 
-1.6603355e-02 -1.4662993e-01 0.0000000e+00 
-1.2759251e-02 -1.4699111e-01 0.0000000e+00 
-8.9183690e-03 -1.4736355e-01 0.0000000e+00 
-5.0788105e-03 -1.4774725e-01 0.0000000e+00 
-1.7167997e-02 -1.5177015e-01 0.0000000e+00 
-1.3281608e-02 -1.5214058e-01 0.0000000e+00 
-9.3985794e-03 -1.5252151e-01 0.0000000e+00 
-5.5165207e-03 -1.5291372e-01 0.0000000e+00 
-1.7741022e-02 -1.5696714e-01 0.0000000e+00 
-1.3814154e-02 -1.5734562e-01 0.0000000e+00 
-9.8904152e-03 -1.5773447e-01 0.0000000e+00 
-5.9678374e-03 -1.5813375e-01 0.0000000e+00 
-1.8322212e-02 -1.6221649e-01 0.0000000e+00 
-1.4356387e-02 -1.6260373e-01 0.0000000e+00 
-1.0393818e-02 -1.6300058e-01 0.0000000e+00 
-6.4320556e-03 -1.6340783e-01 0.0000000e+00 
-1.8911043e-02 -1.6751816e-01 0.0000000e+00 
-1.4908121e-02 -1.6791295e-01 0.0000000e+00 
-1.0908204e-02 -1.6831721e-01 0.0000000e+00 
-6.9092750e-03 -1.6873105e-01 0.0000000e+00 
-1.9507304e-02 -1.7286772e-01 0.0000000e+00 
-1.5468804e-02 -1.7327072e-01 0.0000000e+00 
-1.1433459e-02 -1.7368246e-01 0.0000000e+00 
-7.3987671e-03 -1.7410366e-01 0.0000000e+00 
-2.0110454e-02 -1.7826507e-01 0.0000000e+00 
-1.6038227e-02 -1.7867511e-01 0.0000000e+00 
-1.1968966e-02 -1.7909361e-01 0.0000000e+00 
-7.9005758e-03 -1.7952087e-01 0.0000000e+00 
-2.0720144e-02 -1.8370626e-01 0.0000000e+00 
-1.6616032e-02 -1.8412342e-01 0.0000000e+00 
-1.2514652e-02 -1.8454861e-01 0.0000000e+00 