# vtk DataFile Version 4.0
vtk output
ASCII
DATASET UNSTRUCTURED_GRID
POINTS 604 float
5.5000000e+00 5.9700000e+00 0.0000000e+00 
5.5000000e+00 5.9900000e+00 0.0000000e+00 
5.5266667e+00 5.9700000e+00 0.0000000e+00 
5.5266667e+00 5.9900000e+00 0.0000000e+00 
5.5000000e+00 6.0100000e+00 0.0000000e+00 
5.5266667e+00 6.0100000e+00 0.0000000e+00 
5.5533333e+00 5.9700000e+00 0.0000000e+00 
5.5533333e+00 5.9900000e+00 0.0000000e+00 
5.5000000e+00 6.0300000e+00 0.0000000e+00 
5.5266667e+00 6.0300000e+00 0.0000000e+00 
5.5533333e+00 6.0100000e+00 0.0000000e+00 
5.5800000e+00 5.9700000e+00 0.0000000e+00 
5.5533333e+00 6.0300000e+00 0.0000000e+00 
5.5800000e+00 5.9900000e+00 0.0000000e+00 
5.5800000e+00 6.0100000e+00 0.0000000e+00 
5.5800000e+00 6.0300000e+00 0.0000000e+00 
5.6066667e+00 5.9700000e+00 0.0000000e+00 
5.6066667e+00 5.9900000e+00 0.0000000e+00 
5.6066667e+00 6.0100000e+00 0.0000000e+00 
5.6066667e+00 6.0300000e+00 0.0000000e+00 
5.6333333e+00 5.9700000e+00 0.0000000e+00 
5.6333333e+00 5.9900000e+00 0.0000000e+00 
5.6333333e+00 6.0100000e+00 0.0000000e+00 
5.6333333e+00 6.0300000e+00 0.0000000e+00 
5.6600000e+00 5.9700000e+00 0.0000000e+00 
5.6600000e+00 5.9900000e+00 0.0000000e+00 
5.6600000e+00 6.0100000e+00 0.0000000e+00 
5.6600000e+00 6.0300000e+00 0.0000000e+00 
5.6866667e+00 5.9700000e+00 0.0000000e+00 
5.6866667e+00 5.9900000e+00 0.0000000e+00 
5.6866667e+00 6.0100000e+00 0.0000000e+00 
5.6866667e+00 6.0300000e+00 0.0000000e+00 
5.7133333e+00 5.9700000e+00 0.0000000e+00 
5.7133333e+00 5.9900000e+00 0.0000000e+00 
5.7133333e+00 6.0100000e+00 0.0000000e+00 
5.7133333e+00 6.0300000e+00 0.0000000e+00 
5.7400000e+00 5.9700000e+00 0.0000000e+00 
5.7400000e+00 5.9900000e+00 0.0000000e+00 
5.7400000e+00 6.0100000e+00 0.0000000e+00 
5.7400000e+00 6.0300000e+00 0.0000000e+00 
5.7666667e+00 5.9700000e+00 0.0000000e+00 
5.7666667e+00 5.9900000e+00 0.0000000e+00 
5.7666667e+00 6.0100000e+00 0.0000000e+00 
5.7666667e+00 6.0300000e+00 0.0000000e+00 
5.7933333e+00 5.9700000e+00 0.0000000e+00 
5.7933333e+00 5.9900000e+00 0.0000000e+00 
5.7933333e+00 6.0100000e+00 0.0000000e+00 
5.7933333e+00 6.0300000e+00 0.0000000e+00 
5.8200000e+00 5.9700000e+00 0.0000000e+00 
5.8200000e+00 5.9900000e+00 0.0000000e+00 
5.8200000e+00 6.0100000e+00 0.0000000e+00 
5.8200000e+00 6.0300000e+00 0.0000000e+00 
5.8466667e+00 5.9700000e+00 0.0000000e+00 
5.8466667e+00 5.9900000e+00 0.0000000e+00 
5.8466667e+00 6.0100000e+00 0.0000000e+00 
5.8466667e+00 6.0300000e+00 0.0000000e+00 
5.8733333e+00 5.9700000e+00 0.0000000e+00 
5.8733333e+00 5.9900000e+00 0.0000000e+00 
5.8733333e+00 6.0100000e+00 0.0000000e+00 
5.8733333e+00 6.0300000e+00 0.0000000e+00 
5.9000000e+00 5.9700000e+00 0.0000000e+00 
5.9000000e+00 5.9900000e+00 0.0000000e+00 
5.9000000e+00 6.0100000e+00 0.0000000e+00 
5.9000000e+00 6.0300000e+00 0.0000000e+00 
5.9266667e+00 5.9700000e+00 0.0000000e+00 
5.9266667e+00 5.9900000e+00 0.0000000e+00 
5.9266667e+00 6.0100000e+00 0.0000000e+00 
5.9266667e+00 6.0300000e+00 0.0000000e+00 
5.9533333e+00 5.9700000e+00 0.0000000e+00 
5.9533333e+00 5.9900000e+00 0.0000000e+00 
5.9533333e+00 6.0100000e+00 0.0000000e+00 
5.9533333e+00 6.0300000e+00 0.0000000e+00 
5.9800000e+00 5.9700000e+00 0.0000000e+00 
5.9800000e+00 5.9900000e+00 0.0000000e+00 
5.9800000e+00 6.0100000e+00 0.0000000e+00 
5.9800000e+00 6.0300000e+00 0.0000000e+00 
6.0066667e+00 5.9700000e+00 0.0000000e+00 
6.0066667e+00 5.9900000e+00 0.0000000e+00 
6.0066667e+00 6.0100000e+00 0.0000000e+00 
6.0066667e+00 6.0300000e+00 0.0000000e+00 
6.0333333e+00 5.9700000e+00 0.0000000e+00 
6.0333333e+00 5.9900000e+00 0.0000000e+00 
6.0333333e+00 6.0100000e+00 0.0000000e+00 
6.0333333e+00 6.0300000e+00 0.0000000e+00 
6.0600000e+00 5.9700000e+00 0.0000000e+00 
6.0600000e+00 5.9900000e+00 0.0000000e+00 
6.0600000e+00 6.0100000e+00 0.0000000e+00 
6.0600000e+00 6.0300000e+00 0.0000000e+00 
6.0866667e+00 5.9700000e+00 0.0000000e+00 
6.0866667e+00 5.9900000e+00 0.0000000e+00 
6.0866667e+00 6.0100000e+00 0.0000000e+00 
6.0866667e+00 6.0300000e+00 0.0000000e+00 
6.1133333e+00 5.9700000e+00 0.0000000e+00 
6.1133333e+00 5.9900000e+00 0.0000000e+00 
6.1133333e+00 6.0100000e+00 0.0000000e+00 
6.1133333e+00 6.0300000e+00 0.0000000e+00 
6.1400000e+00 5.9700000e+00 0.0000000e+00 
6.1400000e+00 5.9900000e+00 0.0000000e+00 
6.1400000e+00 6.0100000e+00 0.0000000e+00 
6.1400000e+00 6.0300000e+00 0.0000000e+00 
6.1666667e+00 5.9700000e+00 0.0000000e+00 
6.1666667e+00 5.9900000e+00 0.0000000e+00 
6.1666667e+00 6.0100000e+00 0.0000000e+00 
6.1666667e+00 6.0300000e+00 0.0000000e+00 
6.1933333e+00 5.9700000e+00 0.0000000e+00 
6.1933333e+00 5.9900000e+00 0.0000000e+00 
6.1933333e+00 6.0100000e+00 0.0000000e+00 
6.1933333e+00 6.0300000e+00 0.0000000e+00 
6.2200000e+00 5.9700000e+00 0.0000000e+00 
6.2200000e+00 5.9900000e+00 0.0000000e+00 
6.2200000e+00 6.0100000e+00 0.0000000e+00 
6.2200000e+00 6.0300000e+00 0.0000000e+00 
6.2466667e+00 5.9700000e+00 0.0000000e+00 
6.2466667e+00 5.9900000e+00 0.0000000e+00 
6.2466667e+00 6.0100000e+00 0.0000000e+00 
6.2466667e+00 6.0300000e+00 0.0000000e+00 
6.2733333e+00 5.9700000e+00 0.0000000e+00 
6.2733333e+00 5.9900000e+00 0.0000000e+00 
6.2733333e+00 6.0100000e+00 0.0000000e+00 
6.2733333e+00 6.0300000e+00 0.0000000e+00 
6.3000000e+00 5.9700000e+00 0.0000000e+00 
6.3000000e+00 5.9900000e+00 0.0000000e+00 
6.3000000e+00 6.0100000e+00 0.0000000e+00 
6.3000000e+00 6.0300000e+00 0.0000000e+00 
6.3266667e+00 5.9700000e+00 0.0000000e+00 
6.3266667e+00 5.9900000e+00 0.0000000e+00 
6.3266667e+00 6.0100000e+00 0.0000000e+00 
6.3266667e+00 6.0300000e+00 0.0000000e+00 
6.3533333e+00 5.9700000e+00 0.0000000e+00 
6.3533333e+00 5.9900000e+00 0.0000000e+00 
6.3533333e+00 6.0100000e+00 0.0000000e+00 
6.3533333e+00 6.0300000e+00 0.0000000e+00 
6.3800000e+00 5.9700000e+00 0.0000000e+00 
6.3800000e+00 5.9900000e+00 0.0000000e+00 
6.3800000e+00 6.0100000e+00 0.0000000e+00 
6.3800000e+00 6.0300000e+00 0.0000000e+00 
6.4066667e+00 5.9700000e+00 0.0000000e+00 
6.4066667e+00 5.9900000e+00 0.0000000e+00 
6.4066667e+00 6.0100000e+00 0.0000000e+00 
6.4066667e+00 6.0300000e+00 0.0000000e+00 
6.4333333e+00 5.9700000e+00 0.0000000e+00 
6.4333333e+00 5.9900000e+00 0.0000000e+00 
6.4333333e+00 6.0100000e+00 0.0000000e+00 
6.4333333e+00 6.0300000e+00 0.0000000e+00 
6.4600000e+00 5.9700000e+00 0.0000000e+00 
6.4600000e+00 5.9900000e+00 0.0000000e+00 
6.4600000e+00 6.0100000e+00 0.0000000e+00 
6.4600000e+00 6.0300000e+00 0.0000000e+00 
6.4866667e+00 5.9700000e+00 0.0000000e+00 
6.4866667e+00 5.9900000e+00 0.0000000e+00 
6.4866667e+00 6.0100000e+00 0.0000000e+00 
6.4866667e+00 6.0300000e+00 0.0000000e+00 
6.5133333e+00 5.9700000e+00 0.0000000e+00 
6.5133333e+00 5.9900000e+00 0.0000000e+00 
6.5133333e+00 6.0100000e+00 0.0000000e+00 
6.5133333e+00 6.0300000e+00 0.0000000e+00 
6.5400000e+00 5.9700000e+00 0.0000000e+00 
6.5400000e+00 5.9900000e+00 0.0000000e+00 
6.5400000e+00 6.0100000e+00 0.0000000e+00 
6.5400000e+00 6.0300000e+00 0.0000000e+00 
6.5666667e+00 5.9700000e+00 0.0000000e+00 
6.5666667e+00 5.9900000e+00 0.0000000e+00 
6.5666667e+00 6.0100000e+00 0.0000000e+00 
6.5666667e+00 6.0300000e+00 0.0000000e+00 
6.5933333e+00 5.9700000e+00 0.0000000e+00 
6.5933333e+00 5.9900000e+00 0.0000000e+00 
6.5933333e+00 6.0100000e+00 0.0000000e+00 
6.5933333e+00 6.0300000e+00 0.0000000e+00 
6.6200000e+00 5.9700000e+00 0.0000000e+00 
6.6200000e+00 5.9900000e+00 0.0000000e+00 
6.6200000e+00 6.0100000e+00 0.0000000e+00 
6.6200000e+00 6.0300000e+00 0.0000000e+00 
6.6466667e+00 5.9700000e+00 0.0000000e+00 
6.6466667e+00 5.9900000e+00 0.0000000e+00 
6.6466667e+00 6.0100000e+00 0.0000000e+00 
6.6466667e+00 6.0300000e+00 0.0000000e+00 
6.6733333e+00 5.9700000e+00 0.0000000e+00 
6.6733333e+00 5.9900000e+00 0.0000000e+00 
6.6733333e+00 6.0100000e+00 0.0000000e+00 
6.6733333e+00 6.0300000e+00 0.0000000e+00 
6.7000000e+00 5.9700000e+00 0.0000000e+00 
6.7000000e+00 5.9900000e+00 0.0000000e+00 
6.7000000e+00 6.0100000e+00 0.0000000e+00 
6.7000000e+00 6.0300000e+00 0.0000000e+00 
6.7266667e+00 5.9700000e+00 0.0000000e+00 
6.7266667e+00 5.9900000e+00 0.0000000e+00 
6.7266667e+00 6.0100000e+00 0.0000000e+00 
6.7266667e+00 6.0300000e+00 0.0000000e+00 
6.7533333e+00 5.9700000e+00 0.0000000e+00 
6.7533333e+00 5.9900000e+00 0.0000000e+00 
6.7533333e+00 6.0100000e+00 0.0000000e+00 
6.7533333e+00 6.0300000e+00 0.0000000e+00 
6.7800000e+00 5.9700000e+00 0.0000000e+00 
6.7800000e+00 5.9900000e+00 0.0000000e+00 
6.7800000e+00 6.0100000e+00 0.0000000e+00 
6.7800000e+00 6.0300000e+00 0.0000000e+00 
6.8066667e+00 5.9700000e+00 0.0000000e+00 
6.8066667e+00 5.9900000e+00 0.0000000e+00 
6.8066667e+00 6.0100000e+00 0.0000000e+00 
6.8066667e+00 6.0300000e+00 0.0000000e+00 
6.8333333e+00 5.9700000e+00 0.0000000e+00 
6.8333333e+00 5.9900000e+00 0.0000000e+00 
6.8333333e+00 6.0100000e+00 0.0000000e+00 
6.8333333e+00 6.0300000e+00 0.0000000e+00 
6.8600000e+00 5.9700000e+00 0.0000000e+00 
6.8600000e+00 5.9900000e+00 0.0000000e+00 
6.8600000e+00 6.0100000e+00 0.0000000e+00 
6.8600000e+00 6.0300000e+00 0.0000000e+00 
6.8866667e+00 5.9700000e+00 0.0000000e+00 
6.8866667e+00 5.9900000e+00 0.0000000e+00 
6.8866667e+00 6.0100000e+00 0.0000000e+00 
6.8866667e+00 6.0300000e+00 0.0000000e+00 
6.9133333e+00 5.9700000e+00 0.0000000e+00 
6.9133333e+00 5.9900000e+00 0.0000000e+00 
6.9133333e+00 6.0100000e+00 0.0000000e+00 
6.9133333e+00 6.0300000e+00 0.0000000e+00 
6.9400000e+00 5.9700000e+00 0.0000000e+00 
6.9400000e+00 5.9900000e+00 0.0000000e+00 
6.9400000e+00 6.0100000e+00 0.0000000e+00 
6.9400000e+00 6.0300000e+00 0.0000000e+00 
6.9666667e+00 5.9700000e+00 0.0000000e+00 
6.9666667e+00 5.9900000e+00 0.0000000e+00 
6.9666667e+00 6.0100000e+00 0.0000000e+00 
6.9666667e+00 6.0300000e+00 0.0000000e+00 
6.9933333e+00 5.9700000e+00 0.0000000e+00 
6.9933333e+00 5.9900000e+00 0.0000000e+00 
6.9933333e+00 6.0100000e+00 0.0000000e+00 
6.9933333e+00 6.0300000e+00 0.0000000e+00 
7.0200000e+00 5.9700000e+00 0.0000000e+00 
7.0200000e+00 5.9900000e+00 0.0000000e+00 
[...]
POINT_DATA 604
FIELD FieldData 2
DISPLACEMENT 3 604  float
0.0000000e+00 0.0000000e+00 0.0000000e+00 
0.0000000e+00 0.0000000e+00 0.0000000e+00 
1.1161031e-04 6.9354582e-05 0.0000000e+00 
3.5337815e-05 4.5732561e-05 0.0000000e+00 
0.0000000e+00 0.0000000e+00 0.0000000e+00 
-3.5230812e-05 4.5534292e-05 0.0000000e+00 
2.2307985e-04 2.1892358e-04 0.0000000e+00 
7.3842016e-05 2.0003244e-04 0.0000000e+00 
0.0000000e+00 0.0000000e+00 0.0000000e+00 
-1.1193328e-04 6.8542269e-05 0.0000000e+00 
-7.4814400e-05 1.9983208e-04 0.0000000e+00 
3.3065835e-04 4.7175142e-04 0.0000000e+00 
-2.2438788e-04 2.1882562e-04 0.0000000e+00 
1.0862928e-04 4.5150927e-04 0.0000000e+00 
-1.1206066e-04 4.5029324e-04 0.0000000e+00 
-3.3451368e-04 4.6761672e-04 0.0000000e+00 
4.3380382e-04 8.1787256e-04 0.0000000e+00 
1.4154165e-04 7.9817359e-04 0.0000000e+00 
-1.4952805e-04 7.9637650e-04 0.0000000e+00 
-4.4231194e-04 8.1303939e-04 0.0000000e+00 
5.3223312e-04 1.2585331e-03 0.0000000e+00 
1.7198799e-04 1.2374864e-03 0.0000000e+00 
-1.8718354e-04 1.2342208e-03 0.0000000e+00 
-5.4815795e-04 1.2483399e-03 0.0000000e+00 
6.2577615e-04 1.7867974e-03 0.0000000e+00 
1.9976226e-04 1.7657918e-03 0.0000000e+00 
-2.2534316e-04 1.7617445e-03 0.0000000e+00 
-6.5241025e-04 1.7747985e-03 0.0000000e+00 
7.1435111e-04 2.4027129e-03 0.0000000e+00 
2.2429581e-04 2.3808144e-03 0.0000000e+00 
-2.6458404e-04 2.3753129e-03 0.0000000e+00 
-7.5509768e-04 2.3863594e-03 0.0000000e+00 
7.9748332e-04 3.1034010e-03 0.0000000e+00 
2.4601301e-04 3.0796889e-03 0.0000000e+00 
-3.0447887e-04 3.0720921e-03 0.0000000e+00 
-8.5676842e-04 3.0801642e-03 0.0000000e+00 
8.7536637e-04 3.8829764e-03 0.0000000e+00 
2.6441486e-04 3.8589282e-03 0.0000000e+00 
-3.4559422e-04 3.8499833e-03 0.0000000e+00 
-9.5746703e-04 3.8566524e-03 0.0000000e+00 
9.4762107e-04 4.7426346e-03 0.0000000e+00 
2.7935655e-04 4.7164539e-03 0.0000000e+00 
-3.8804902e-04 4.7053615e-03 0.0000000e+00 
-1.0573202e-03 4.7087524e-03 0.0000000e+00 
1.0143472e-03 5.6755129e-03 0.0000000e+00 
2.9073084e-04 5.6488241e-03 0.0000000e+00 
-4.3199548e-04 5.6361418e-03 0.0000000e+00 
-1.1566056e-03 5.6379737e-03 0.0000000e+00 
1.0751957e-03 6.6828853e-03 0.0000000e+00 
2.9843869e-04 6.6538740e-03 0.0000000e+00 
-4.7751596e-04 6.6388762e-03 0.0000000e+00 
-1.2553502e-03 6.6372577e-03 0.0000000e+00 
1.1303860e-03 7.7578512e-03 0.0000000e+00 
3.0239884e-04 7.7282114e-03 0.0000000e+00 
-5.2473882e-04 7.7114992e-03 0.0000000e+00 
-1.3537717e-03 7.7082117e-03 0.0000000e+00 
1.1795668e-03 8.9018017e-03 0.0000000e+00 
3.0255224e-04 8.8697211e-03 0.0000000e+00 
-5.7369961e-04 8.8505914e-03 0.0000000e+00 
-1.4518328e-03 8.8437524e-03 0.0000000e+00 
1.2230336e-03 1.0107803e-02 0.0000000e+00 
2.9885979e-04 1.0075034e-02 0.0000000e+00 
-6.2448818e-04 1.0054127e-02 0.0000000e+00 
-1.5497303e-03 1.0045568e-02 0.0000000e+00 
1.2604352e-03 1.1377348e-02 0.0000000e+00 
2.9129902e-04 1.1342080e-02 0.0000000e+00 
-6.7709666e-04 1.1318711e-02 0.0000000e+00 
-1.6473632e-03 1.1306557e-02 0.0000000e+00 
1.2921359e-03 1.2703467e-02 0.0000000e+00 
2.7986902e-04 1.2667507e-02 0.0000000e+00 
-7.3158007e-04 1.2642352e-02 0.0000000e+00 
-1.7449109e-03 1.2628481e-02 0.0000000e+00 
1.3177864e-03 1.4087750e-02 0.0000000e+00 
2.6457879e-04 1.4049286e-02 0.0000000e+00 
-7.8789226e-04 1.4021678e-02 0.0000000e+00 
-1.8422106e-03 1.4004222e-02 0.0000000e+00 
1.3378132e-03 1.5523199e-02 0.0000000e+00 
2.4546396e-04 1.5484079e-02 0.0000000e+00 
-8.4605452e-04 1.5454725e-02 0.0000000e+00 
-1.9394256e-03 1.5435592e-02 0.0000000e+00 
1.3518308e-03 1.7011472e-02 0.0000000e+00 
2.2258090e-04 1.6969919e-02 0.0000000e+00 
-9.0596362e-04 1.6938111e-02 0.0000000e+00 
-2.0363743e-03 1.6915472e-02 0.0000000e+00 
1.3602837e-03 1.8545504e-02 0.0000000e+00 
1.9602066e-04 1.8503314e-02 0.0000000e+00 
-9.6761914e-04 1.8470058e-02 0.0000000e+00 
-2.1332417e-03 1.8445751e-02 0.0000000e+00 
1.3631965e-03 2.0126002e-02 0.0000000e+00 
1.6545567e-04 2.0082364e-02 0.0000000e+00 
-1.0312861e-03 2.0047150e-02 0.0000000e+00 
-2.2296228e-03 2.0020404e-02 0.0000000e+00 
1.3603326e-03 2.1750349e-02 0.0000000e+00 
1.3165924e-04 2.1704480e-02 0.0000000e+00 
-1.0961907e-03 2.1666835e-02 0.0000000e+00 
-2.3257613e-03 2.1636804e-02 0.0000000e+00 
1.3523166e-03 2.3412530e-02 0.0000000e+00 
9.4379674e-05 2.3366300e-02 0.0000000e+00 
-1.1626675e-03 2.3327252e-02 0.0000000e+00 
-2.4214902e-03 2.3295829e-02 0.0000000e+00 
1.3387668e-03 2.5114433e-02 0.0000000e+00 
5.3705012e-05 2.5066043e-02 0.0000000e+00 
-1.2305368e-03 2.5024917e-02 0.0000000e+00 
-2.5164892e-03 2.4990293e-02 0.0000000e+00 
1.3202340e-03 2.6848904e-02 0.0000000e+00 
9.7868295e-06 2.6800355e-02 0.0000000e+00 
-1.2997111e-03 2.6757951e-02 0.0000000e+00 
-2.6109332e-03 2.6722138e-02 0.0000000e+00 
1.2963665e-03 2.8617849e-02 0.0000000e+00 
-3.7261422e-05 2.8567315e-02 0.0000000e+00 
-1.3700131e-03 2.8523020e-02 0.0000000e+00 
-2.7044217e-03 2.8484186e-02 0.0000000e+00 
1.2677876e-03 3.0414058e-02 0.0000000e+00 
-8.7288195e-05 3.0363581e-02 0.0000000e+00 
-1.4413519e-03 3.0318214e-02 0.0000000e+00 
-2.7970897e-03 3.0278398e-02 0.0000000e+00 
1.2341414e-03 3.2239477e-02 0.0000000e+00 
-1.4016520e-04 3.2187232e-02 0.0000000e+00 
-1.5135313e-03 3.2140193e-02 0.0000000e+00 
-2.8884983e-03 3.2097573e-02 0.0000000e+00 
1.1960809e-03 3.4086860e-02 0.0000000e+00 
-1.9572186e-04 3.4034911e-02 0.0000000e+00 
-1.5864410e-03 3.3987034e-02 0.0000000e+00 
-2.9787800e-03 3.3943662e-02 0.0000000e+00 
1.1532492e-03 3.5958163e-02 0.0000000e+00 
-2.5381593e-04 3.5904689e-02 0.0000000e+00 
-1.6598678e-03 3.5855383e-02 0.0000000e+00 
-3.0674608e-03 3.5809449e-02 0.0000000e+00 
1.1063250e-03 3.7846107e-02 0.0000000e+00 
-3.1426130e-04 3.7793191e-02 0.0000000e+00 
-1.7336853e-03 3.7743302e-02 0.0000000e+00 
-3.1546714e-03 3.7696868e-02 0.0000000e+00 
1.0549525e-03 3.9752649e-02 0.0000000e+00 
-3.7690497e-04 3.9698475e-02 0.0000000e+00 
-1.8076675e-03 3.9647421e-02 0.0000000e+00 
-3.2399060e-03 3.9598686e-02 0.0000000e+00 
9.9983221e-04 4.1670495e-02 0.0000000e+00 
-4.4154690e-04 4.1617146e-02 0.0000000e+00 
-1.8816730e-03 4.1565779e-02 0.0000000e+00 
-3.3232930e-03 4.1516804e-02 0.0000000e+00 
9.4057083e-04 4.3601569e-02 0.0000000e+00 
-5.0800577e-04 4.3547273e-02 0.0000000e+00 
-1.9554420e-03 4.3494963e-02 0.0000000e+00 
-3.4043412e-03 4.3443984e-02 0.0000000e+00 
8.7784386e-04 4.5538524e-02 0.0000000e+00 
-5.7604047e-04 4.5485271e-02 0.0000000e+00 
-2.0288355e-03 4.5433149e-02 0.0000000e+00 
-3.4832149e-03 4.5382127e-02 0.0000000e+00 
8.1171777e-04 4.7482227e-02 0.0000000e+00 
-6.4589093e-04 4.7429239e-02 0.0000000e+00 
-2.1019829e-03 4.7376872e-02 0.0000000e+00 
-3.5592642e-03 4.7325105e-02 0.0000000e+00 
7.4203994e-04 4.9429937e-02 0.0000000e+00 
-7.1665195e-04 4.9376514e-02 0.0000000e+00 
-2.1739798e-03 4.9323495e-02 0.0000000e+00 
-3.6325904e-03 4.9270218e-02 0.0000000e+00 
6.6956008e-04 5.1375456e-02 0.0000000e+00 
-7.8847818e-04 5.1323583e-02 0.0000000e+00 
-2.2450512e-03 5.1271034e-02 0.0000000e+00 
-3.7029806e-03 5.1218204e-02 0.0000000e+00 
5.9391232e-04 5.3320649e-02 0.0000000e+00 
-8.6120800e-04 5.3268570e-02 0.0000000e+00 
-2.3149222e-03 5.3215877e-02 0.0000000e+00 
-3.7698878e-03 5.3161766e-02 0.0000000e+00 
5.1577284e-04 5.5258178e-02 0.0000000e+00 
-9.3459824e-04 5.5207966e-02 0.0000000e+00 
-2.3834081e-03 5.5155985e-02 0.0000000e+00 
-3.8335022e-03 5.5102639e-02 0.0000000e+00 
4.3481158e-04 5.7189823e-02 0.0000000e+00 
-1.0084751e-03 5.7139710e-02 0.0000000e+00 
-2.4502656e-03 5.7087885e-02 0.0000000e+00 
-3.8932351e-03 5.7033550e-02 0.0000000e+00 
3.5173637e-04 5.9108261e-02 0.0000000e+00 
-1.0826192e-03 5.9060305e-02 0.0000000e+00 
-2.5153286e-03 5.9009486e-02 0.0000000e+00 
-3.9492552e-03 5.8956205e-02 0.0000000e+00 
2.6622096e-04 6.1015213e-02 0.0000000e+00 
-1.1568610e-03 6.0967664e-02 0.0000000e+00 
-2.5783638e-03 6.0917297e-02 0.0000000e+00 
-4.0009747e-03 6.0863323e-02 0.0000000e+00 
1.7896015e-04 6.2903402e-02 0.0000000e+00 
-1.2309865e-03 6.2858285e-02 0.0000000e+00 
-2.6392088e-03 6.2809207e-02 0.0000000e+00 
-4.0485809e-03 6.2756565e-02 0.0000000e+00 
8.9633678e-05 6.4774472e-02 0.0000000e+00 
-1.3048323e-03 6.4730059e-02 0.0000000e+00 
-2.6976437e-03 6.4681716e-02 0.0000000e+00 
-4.0914923e-03 6.4628666e-02 0.0000000e+00 
-1.0810756e-06 6.6621212e-02 0.0000000e+00 
-1.3781946e-03 6.6579488e-02 0.0000000e+00 
-2.7535150e-03 6.6532701e-02 0.0000000e+00 
-4.1299178e-03 6.6481248e-02 0.0000000e+00 
-9.3498209e-05 6.8445188e-02 0.0000000e+00 
-1.4509204e-03 6.8404446e-02 0.0000000e+00 
-2.8066216e-03 6.8358659e-02 0.0000000e+00 
-4.1632874e-03 6.8307067e-02 0.0000000e+00 
-1.8696148e-04 7.0239287e-02 0.0000000e+00 
-1.5228199e-03 7.0201454e-02 0.0000000e+00 
-2.8568215e-03 7.0157464e-02 0.0000000e+00 
-4.1918329e-03 7.0107703e-02 0.0000000e+00 
-2.8181762e-04 7.2004981e-02 0.0000000e+00 
-1.5937345e-03 7.1968404e-02 0.0000000e+00 
-2.9039159e-03 7.1925599e-02 0.0000000e+00 
-4.2150399e-03 7.1875964e-02 0.0000000e+00 
-3.7747490e-04 7.3735222e-02 0.0000000e+00 
-1.6634687e-03 7.3701693e-02 0.0000000e+00 
-2.9477891e-03 7.3661096e-02 0.0000000e+00 
-4.2331996e-03 7.3613430e-02 0.0000000e+00 
-4.7386704e-04 7.5430500e-02 0.0000000e+00 
-1.7322608e-03 7.5399255e-02 0.0000000e+00 
-2.9886374e-03 7.5360430e-02 0.0000000e+00 
-4.2457129e-03 7.5314018e-02 0.0000000e+00 
-5.7112553e-04 7.7087987e-02 0.0000000e+00 
-1.7993331e-03 7.7058363e-02 0.0000000e+00 
-3.0256812e-03 7.7020879e-02 0.0000000e+00 
-4.2527909e-03 7.6974966e-02 0.0000000e+00 
-6.6864917e-04 7.8701939e-02 0.0000000e+00 
-1.8648851e-03 7.8675619e-02 0.0000000e+00 
-3.0592119e-03 7.8640448e-02 0.0000000e+00 
-4.2544029e-03 7.8596820e-02 0.0000000e+00 
-7.6675545e-04 8.0273678e-02 0.0000000e+00 
-1.9288403e-03 8.0249068e-02 0.0000000e+00 
-3.0891025e-03 8.0215583e-02 0.0000000e+00 
-4.2501016e-03 8.0172545e-02 0.0000000e+00 
-8.6496115e-04 8.1796590e-02 0.0000000e+00 
-1.9910731e-03 8.1775387e-02 0.0000000e+00 
-3.1152727e-03 8.1744278e-02 0.0000000e+00 
-4.2402761e-03 8.1703673e-02 0.0000000e+00 
-9.6355746e-04 8.3271899e-02 0.0000000e+00 
-2.0515162e-03 8.3252509e-02 0.0000000e+00 
-3.1376618e-03 8.3223187e-02 0.0000000e+00 
-4.2244861e-03 8.3183280e-02 0.0000000e+00 
-1.0620703e-03 8.4693170e-02 0.0000000e+00 
-2.1100974e-03 8.4677221e-02 0.0000000e+00 
-3.1562370e-03 8.4650340e-02 0.0000000e+00 
-4.2031298e-03 8.4612946e-02 0.0000000e+00 
-1.1607947e-03 8.6061585e-02 0.0000000e+00 
-2.1667777e-03 8.6047505e-02 0.0000000e+00 
-3.1709816e-03 8.6022463e-02 0.0000000e+00 
-4.1758127e-03 8.5985837e-02 0.0000000e+00 
-1.2593052e-03 8.7370915e-02 0.0000000e+00 
-2.2215200e-03 8.7360252e-02 0.0000000e+00 
-3.1818954e-03 8.7337664e-02 0.0000000e+00 
-4.1429792e-03 8.7303580e-02 0.0000000e+00 
-1.3579009e-03 8.8622307e-02 0.0000000e+00 
-2.2743148e-03 8.8613511e-02 0.0000000e+00 
-3.1890077e-03 8.8592759e-02 0.0000000e+00 
-4.1042820e-03 8.8559463e-02 0.0000000e+00 
-1.4562062e-03 8.9809760e-02 0.0000000e+00 
-2.3251635e-03 8.9804295e-02 0.0000000e+00 
-3.1923534e-03 8.9785954e-02 0.0000000e+00 
-4.0602131e-03 8.9755176e-02 0.0000000e+00 
-1.5545258e-03 9.0934401e-02 0.0000000e+00 
-2.3740884e-03 9.0930740e-02 0.0000000e+00 
-3.1920109e-03 9.0914175e-02 0.0000000e+00 
-4.0104738e-03 9.0884149e-02 0.0000000e+00 
-1.6525334e-03 9.1990482e-02 0.0000000e+00 
-2.4211303e-03 9.1990000e-02 0.0000000e+00 
-3.1880497e-03 9.1975740e-02 0.0000000e+00 
-3.9556027e-03 9.1948145e-02 0.0000000e+00 
-1.7505733e-03 9.2979120e-02 0.0000000e+00 
-2.4663270e-03 9.2980332e-02 0.0000000e+00 
-3.1805825e-03 9.2967684e-02 0.0000000e+00 
-3.8953812e-03 9.2940768e-02 0.0000000e+00 
-1.8484001e-03 9.3894790e-02 0.0000000e+00 
-2.5097497e-03 9.3898926e-02 0.0000000e+00 
-3.1697129e-03 9.3888584e-02 0.0000000e+00 
-3.8304218e-03 9.3863891e-02 0.0000000e+00 
-1.9460578e-03 9.4737902e-02 0.0000000e+00 
-2.5517625e-03 9.4744172e-02 0.0000000e+00 
-3.1559325e-03 9.4735588e-02 0.0000000e+00 
-3.7604689e-03 9.4712260e-02 0.0000000e+00 
-2.0437599e-03 9.5506362e-02 0.0000000e+00 
-2.5919540e-03 9.5514043e-02 0.0000000e+00 
-3.1388235e-03 9.5506654e-02 0.0000000e+00 
-3.6860985e-03 9.5483846e-02 0.0000000e+00 
-2.1412360e-03 9.6196039e-02 0.0000000e+00 
-2.6307161e-03 9.6206216e-02 0.0000000e+00 
-3.1189177e-03 9.6200655e-02 0.0000000e+00 
-3.6076792e-03 9.6179819e-02 0.0000000e+00 
-2.2388383e-03 9.6808200e-02 0.0000000e+00 
-2.6682003e-03 9.6819460e-02 0.0000000e+00 
-3.0964444e-03 9.6814998e-02 0.0000000e+00 
-3.5251135e-03 9.6794380e-02 0.0000000e+00 
-2.3364546e-03 9.7338208e-02 0.0000000e+00 
-2.7045710e-03 9.7351616e-02 0.0000000e+00 
-3.0715798e-03 9.7348629e-02 0.0000000e+00 
-3.4391394e-03 9.7329725e-02 0.0000000e+00 
-2.4344260e-03 9.7787343e-02 0.0000000e+00 
-2.7399917e-03 9.7801488e-02 0.0000000e+00 
-3.0446236e-03 9.7799278e-02 0.0000000e+00 
-3.3496730e-03 9.7780307e-02 0.0000000e+00 
-2.5326530e-03 9.8151271e-02 0.0000000e+00 
-2.7746799e-03 9.8167150e-02 0.0000000e+00 
-3.0157944e-03 9.8166055e-02 0.0000000e+00 
-3.2574618e-03 9.8148472e-02 0.0000000e+00 
-2.6314855e-03 9.8431349e-02 0.0000000e+00 
-2.8088254e-03 9.8447576e-02 0.0000000e+00 
-2.9854357e-03 9.8446894e-02 0.0000000e+00 
-3.1624639e-03 9.8428922e-02 0.0000000e+00 
-2.7308646e-03 9.8623569e-02 0.0000000e+00 
-2.8426770e-03 9.8641066e-02 0.0000000e+00 
-2.9537891e-03 9.8641096e-02 0.0000000e+00 
-3.0654621e-03 9.8624142e-02 0.0000000e+00 
-2.8311461e-03 9.8729365e-02 0.0000000e+00 
-2.8764461e-03 9.8746779e-02 0.0000000e+00 
-2.9212362e-03 9.8746812e-02 0.0000000e+00 
-2.9664502e-03 9.8729110e-02 0.0000000e+00 
-2.9323059e-03 9.8745063e-02 0.0000000e+00 
-2.9104091e-03 9.8763246e-02 0.0000000e+00 
-2.8880373e-03 9.8763550e-02 0.0000000e+00 
-2.8662397e-03 9.8746459e-02 0.0000000e+00 
-3.0347036e-03 9.8672190e-02 0.0000000e+00 
-2.9447951e-03 9.8689821e-02 0.0000000e+00 
-2.8546076e-03 9.8689688e-02 0.0000000e+00 
-2.7648532e-03 9.8671457e-02 0.0000000e+00 
-3.1383424e-03 9.8507417e-02 0.0000000e+00 
-2.9799028e-03 9.8525278e-02 0.0000000e+00 
-2.8212196e-03 9.8524942e-02 0.0000000e+00 
-2.6631242e-03 9.8506880e-02 0.0000000e+00 
-3.2436072e-03 9.8252364e-02 0.0000000e+00 
-3.0159599e-03 9.8269187e-02 0.0000000e+00 
-2.7883049e-03 9.8267912e-02 0.0000000e+00 
-2.5611199e-03 9.8248311e-02 0.0000000e+00 
-3.3505486e-03 9.7904011e-02 0.0000000e+00 
-3.0532813e-03 9.7920478e-02 0.0000000e+00 
-2.7561335e-03 9.7918630e-02 0.0000000e+00 
-2.4597094e-03 9.7898681e-02 0.0000000e+00 
-3.4593358e-03 9.7463559e-02 0.0000000e+00 
-3.0923164e-03 9.7478924e-02 0.0000000e+00 
-2.7254208e-03 9.7475916e-02 0.0000000e+00 
-2.3589128e-03 9.7454695e-02 0.0000000e+00 
-3.5702394e-03 9.6930524e-02 0.0000000e+00 
-3.1329636e-03 9.6944079e-02 0.0000000e+00 
-2.6960548e-03 9.6939299e-02 0.0000000e+00 
-2.2595277e-03 9.6915988e-02 0.0000000e+00 
-3.6832002e-03 9.6303179e-02 0.0000000e+00 
-3.1757054e-03 9.6315517e-02 0.0000000e+00 
-2.6686512e-03 9.6309319e-02 0.0000000e+00 
-2.1621779e-03 9.6285016e-02 0.0000000e+00 
-3.7985828e-03 9.5583558e-02 0.0000000e+00 
-3.2208000e-03 9.5593542e-02 0.0000000e+00 
-2.6436645e-03 9.5585230e-02 0.0000000e+00 
-2.0669532e-03 9.5558339e-02 0.0000000e+00 
-3.9164545e-03 9.4769693e-02 0.0000000e+00 
-3.2685616e-03 9.4777916e-02 0.0000000e+00 
-2.6213484e-03 9.4767653e-02 0.0000000e+00 
-1.9747302e-03 9.4739321e-02 0.0000000e+00 
-4.0371571e-03 9.3863707e-02 0.0000000e+00 
-3.3192223e-03 9.3869061e-02 0.0000000e+00 
-2.6021764e-03 9.3856207e-02 0.0000000e+00 
-1.8855651e-03 9.3824861e-02 0.0000000e+00 
-4.1607277e-03 9.2863949e-02 0.0000000e+00 
-3.3731038e-03 9.2867002e-02 0.0000000e+00 
-2.5863972e-03 9.2851714e-02 0.0000000e+00 
-1.8002990e-03 9.2818479e-02 0.0000000e+00 
-4.2874927e-03 9.1772680e-02 0.0000000e+00 
-3.4304230e-03 9.1772376e-02 0.0000000e+00 
-2.5744780e-03 9.1754043e-02 0.0000000e+00 
-1.7189746e-03 9.1717395e-02 0.0000000e+00 
-4.4174781e-03 9.0588572e-02 0.0000000e+00 
-3.4914881e-03 9.0585453e-02 0.0000000e+00 
-2.5666435e-03 9.0564229e-02 0.0000000e+00 
-1.6424157e-03 9.0525266e-02 0.0000000e+00 
-4.5509909e-03 8.9314019e-02 0.0000000e+00 
-3.5564939e-03 8.9307083e-02 0.0000000e+00 
-2.5633469e-03 8.9282387e-02 0.0000000e+00 
-1.5706421e-03 8.9239642e-02 0.0000000e+00 
-4.6880389e-03 8.7948002e-02 0.0000000e+00 
-3.6257302e-03 8.7937774e-02 0.0000000e+00 
-2.5647829e-03 8.7909764e-02 0.0000000e+00 
-1.5044535e-03 8.7864312e-02 0.0000000e+00 
-4.8289055e-03 8.6493053e-02 0.0000000e+00 
-3.6993647e-03 8.6478585e-02 0.0000000e+00 
-2.5713844e-03 8.6446717e-02 0.0000000e+00 
-1.4438381e-03 8.6397151e-02 0.0000000e+00 
-4.9735732e-03 8.4948454e-02 0.0000000e+00 
-3.7776627e-03 8.4930258e-02 0.0000000e+00 
-2.5833100e-03 8.4894694e-02 0.0000000e+00 
-1.3895653e-03 8.4842062e-02 0.0000000e+00 
-5.1223170e-03 8.3316869e-02 0.0000000e+00 
-3.8607496e-03 8.3294064e-02 0.0000000e+00 
-2.6009591e-03 8.3254277e-02 0.0000000e+00 
-1.3416016e-03 8.3197258e-02 0.0000000e+00 
-5.2751111e-03 8.1597841e-02 0.0000000e+00 
-3.9488630e-03 8.1570905e-02 0.0000000e+00 
-2.6244412e-03 8.1527176e-02 0.0000000e+00 
-1.3006909e-03 8.1466746e-02 0.0000000e+00 
-5.4320509e-03 7.9793793e-02 0.0000000e+00 
-4.0422545e-03 7.9762251e-02 0.0000000e+00 
-2.6542981e-03 7.9714207e-02 0.0000000e+00 
-1.2667294e-03 7.9649667e-02 0.0000000e+00 
-5.5932420e-03 7.7906017e-02 0.0000000e+00 
-4.1407953e-03 7.7869405e-02 0.0000000e+00 
-2.6903852e-03 7.7816648e-02 0.0000000e+00 
-1.2402770e-03 7.7747483e-02 0.0000000e+00 
-5.7584963e-03 7.5935013e-02 0.0000000e+00 
-4.2447479e-03 7.5893811e-02 0.0000000e+00 
-2.7330238e-03 7.5836671e-02 0.0000000e+00 
-1.2217903e-03 7.5763785e-02 0.0000000e+00 
-5.9280083e-03 7.3883876e-02 0.0000000e+00 
-4.3541574e-03 7.3837377e-02 0.0000000e+00 
-2.7824993e-03 7.3775451e-02 0.0000000e+00 
-1.2111279e-03 7.3697748e-02 0.0000000e+00 
-6.1016483e-03 7.1752944e-02 0.0000000e+00 
-4.4691564e-03 7.1701663e-02 0.0000000e+00 
-2.8388019e-03 7.1635160e-02 0.0000000e+00 
-1.2088940e-03 7.1553595e-02 0.0000000e+00 
-6.2795776e-03 6.9545389e-02 0.0000000e+00 
-4.5897321e-03 6.9488662e-02 0.0000000e+00 
-2.9021844e-03 6.9417252e-02 0.0000000e+00 
-1.2148744e-03 6.9330793e-02 0.0000000e+00 
-6.4616065e-03 6.7261751e-02 0.0000000e+00 
-4.7159880e-03 6.7200107e-02 0.0000000e+00 
-2.9725973e-03 6.7124020e-02 0.0000000e+00 
-1.2296008e-03 6.7033610e-02 0.0000000e+00 
-6.6478660e-03 6.4905304e-02 0.0000000e+00 
-4.8478678e-03 6.4838138e-02 0.0000000e+00 
-3.0502475e-03 6.4757092e-02 0.0000000e+00 
-1.2528071e-03 6.4661782e-02 0.0000000e+00 
-6.8381253e-03 6.2476778e-02 0.0000000e+00 
-4.9854348e-03 6.2404635e-02 0.0000000e+00 
-3.1350362e-03 6.2318879e-02 0.0000000e+00 
-1.2849693e-03 6.2219594e-02 0.0000000e+00 
-7.0324863e-03 5.9979536e-02 0.0000000e+00 
-5.1285885e-03 5.9901864e-02 0.0000000e+00 
-3.2271219e-03 5.9811165e-02 0.0000000e+00 
-1.3257683e-03 5.9707038e-02 0.0000000e+00 
-7.2306773e-03 5.7414473e-02 0.0000000e+00 
-5.2773533e-03 5.7331835e-02 0.0000000e+00 
-3.3263579e-03 5.7236461e-02 0.0000000e+00 
-1.3756229e-03 5.7128397e-02 0.0000000e+00 
-7.4327731e-03 5.4785030e-02 0.0000000e+00 
-5.4315857e-03 5.4696925e-02 0.0000000e+00 
-3.4328546e-03 5.4596689e-02 0.0000000e+00 
-1.4341609e-03 5.4483906e-02 0.0000000e+00 
-7.6384622e-03 5.2092245e-02 0.0000000e+00 
-5.5912726e-03 5.1999254e-02 0.0000000e+00 
-3.5464187e-03 5.1894441e-02 0.0000000e+00 
-1.5017434e-03 5.1777813e-02 0.0000000e+00 
-7.8478073e-03 4.9339622e-02 0.0000000e+00 
-5.7562236e-03 4.9241297e-02 0.0000000e+00 
-3.6671080e-03 4.9131752e-02 0.0000000e+00 
-1.5779604e-03 4.9010599e-02 0.0000000e+00 
-8.0604792e-03 4.6528302e-02 0.0000000e+00 
-5.9263884e-03 4.6425215e-02 0.0000000e+00 
-3.7946866e-03 4.6311313e-02 0.0000000e+00 
-1.6631148e-03 4.6186448e-02 0.0000000e+00 
-8.2764014e-03 4.3661565e-02 0.0000000e+00 
-6.1016751e-03 4.3553601e-02 0.0000000e+00 
-3.9292437e-03 4.3435290e-02 0.0000000e+00 
-1.7567490e-03 4.3306428e-02 0.0000000e+00 
-8.4954684e-03 4.0741749e-02 0.0000000e+00 
-6.2817457e-03 4.0628764e-02 0.0000000e+00 