# vtk DataFile Version 4.0
vtk output
ASCII
DATASET UNSTRUCTURED_GRID
POINTS 604 float
5.5000000e+00 5.9700000e+00 0.0000000e+00 
5.5000000e+00 5.9900000e+00 0.0000000e+00 
5.5266667e+00 5.9700000e+00 0.0000000e+00 
5.5266667e+00 5.9900000e+00 0.0000000e+00 
5.5000000e+00 6.0100000e+00 0.0000000e+00 
5.5266667e+00 6.0100000e+00 0.0000000e+00 
5.5533333e+00 5.9700000e+00 0.0000000e+00 
5.5533333e+00 5.9900000e+00 0.0000000e+00 
5.5000000e+00 6.0300000e+00 0.0000000e+00 
5.5266667e+00 6.0300000e+00 0.0000000e+00 
5.5533333e+00 6.0100000e+00 0.0000000e+00 
5.5800000e+00 5.9700000e+00 0.0000000e+00 
5.5533333e+00 6.0300000e+00 0.0000000e+00 
5.5800000e+00 5.9900000e+00 0.0000000e+00 
5.5800000e+00 6.0100000e+00 0.0000000e+00 
5.5800000e+00 6.0300000e+00 0.0000000e+00 
5.6066667e+00 5.9700000e+00 0.0000000e+00 
5.6066667e+00 5.9900000e+00 0.0000000e+00 
5.6066667e+00 6.0100000e+00 0.0000000e+00 
5.6066667e+00 6.0300000e+00 0.0000000e+00 
5.6333333e+00 5.9700000e+00 0.0000000e+00 
5.6333333e+00 5.9900000e+00 0.0000000e+00 
5.6333333e+00 6.0100000e+00 0.0000000e+00 
5.6333333e+00 6.0300000e+00 0.0000000e+00 
5.6600000e+00 5.9700000e+00 0.0000000e+00 
5.6600000e+00 5.9900000e+00 0.0000000e+00 
5.6600000e+00 6.0100000e+00 0.0000000e+00 
5.6600000e+00 6.0300000e+00 0.0000000e+00 
5.6866667e+00 5.9700000e+00 0.0000000e+00 
5.6866667e+00 5.9900000e+00 0.0000000e+00 
5.6866667e+00 6.0100000e+00 0.0000000e+00 
5.6866667e+00 6.0300000e+00 0.0000000e+00 
5.7133333e+00 5.9700000e+00 0.0000000e+00 
5.7133333e+00 5.9900000e+00 0.0000000e+00 
5.7133333e+00 6.0100000e+00 0.0000000e+00 
5.7133333e+00 6.0300000e+00 0.0000000e+00 
5.7400000e+00 5.9700000e+00 0.0000000e+00 
5.7400000e+00 5.9900000e+00 0.0000000e+00 
5.7400000e+00 6.0100000e+00 0.0000000e+00 
5.7400000e+00 6.0300000e+00 0.0000000e+00 
5.7666667e+00 5.9700000e+00 0.0000000e+00 
5.7666667e+00 5.9900000e+00 0.0000000e+00 
5.7666667e+00 6.0100000e+00 0.0000000e+00 
5.7666667e+00 6.0300000e+00 0.0000000e+00 
5.7933333e+00 5.9700000e+00 0.0000000e+00 
5.7933333e+00 5.9900000e+00 0.0000000e+00 
5.7933333e+00 6.0100000e+00 0.0000000e+00 
5.7933333e+00 6.0300000e+00 0.0000000e+00 
5.8200000e+00 5.9700000e+00 0.0000000e+00 
5.8200000e+00 5.9900000e+00 0.0000000e+00 
5.8200000e+00 6.0100000e+00 0.0000000e+00 
5.8200000e+00 6.0300000e+00 0.0000000e+00 
5.8466667e+00 5.9700000e+00 0.0000000e+00 
5.8466667e+00 5.9900000e+00 0.0000000e+00 
5.8466667e+00 6.0100000e+00 0.0000000e+00 
5.8466667e+00 6.0300000e+00 0.0000000e+00 
5.8733333e+00 5.9700000e+00 0.0000000e+00 
5.8733333e+00 5.9900000e+00 0.0000000e+00 
5.8733333e+00 6.0100000e+00 0.0000000e+00 
5.8733333e+00 6.0300000e+00 0.0000000e+00 
5.9000000e+00 5.9700000e+00 0.0000000e+00 
5.9000000e+00 5.9900000e+00 0.0000000e+00 
5.9000000e+00 6.0100000e+00 0.0000000e+00 
5.9000000e+00 6.0300000e+00 0.0000000e+00 
5.9266667e+00 5.9700000e+00 0.0000000e+00 
5.9266667e+00 5.9900000e+00 0.0000000e+00 
5.9266667e+00 6.0100000e+00 0.0000000e+00 
5.9266667e+00 6.0300000e+00 0.0000000e+00 
5.9533333e+00 5.9700000e+00 0.0000000e+00 
5.9533333e+00 5.9900000e+00 0.0000000e+00 
5.9533333e+00 6.0100000e+00 0.0000000e+00 
5.9533333e+00 6.0300000e+00 0.0000000e+00 
5.9800000e+00 5.9700000e+00 0.0000000e+00 
5.9800000e+00 5.9900000e+00 0.0000000e+00 
5.9800000e+00 6.0100000e+00 0.0000000e+00 
5.9800000e+00 6.0300000e+00 0.0000000e+00 
6.0066667e+00 5.9700000e+00 0.0000000e+00 
6.0066667e+00 5.9900000e+00 0.0000000e+00 
6.0066667e+00 6.0100000e+00 0.0000000e+00 
6.0066667e+00 6.0300000e+00 0.0000000e+00 
6.0333333e+00 5.9700000e+00 0.0000000e+00 
6.0333333e+00 5.9900000e+00 0.0000000e+00 
6.0333333e+00 6.0100000e+00 0.0000000e+00 
6.0333333e+00 6.0300000e+00 0.0000000e+00 
6.0600000e+00 5.9700000e+00 0.0000000e+00 
6.0600000e+00 5.9900000e+00 0.0000000e+00 
6.0600000e+00 6.0100000e+00 0.0000000e+00 
6.0600000e+00 6.0300000e+00 0.0000000e+00 
6.0866667e+00 5.9700000e+00 0.0000000e+00 
6.0866667e+00 5.9900000e+00 0.0000000e+00 
6.0866667e+00 6.0100000e+00 0.0000000e+00 
6.0866667e+00 6.0300000e+00 0.0000000e+00 
6.1133333e+00 5.9700000e+00 0.0000000e+00 
6.1133333e+00 5.9900000e+00 0.0000000e+00 
6.1133333e+00 6.0100000e+00 0.0000000e+00 
6.1133333e+00 6.0300000e+00 0.0000000e+00 
6.1400000e+00 5.9700000e+00 0.0000000e+00 
6.1400000e+00 5.9900000e+00 0.0000000e+00 
6.1400000e+00 6.0100000e+00 0.0000000e+00 
6.1400000e+00 6.0300000e+00 0.0000000e+00 
6.1666667e+00 5.9700000e+00 0.0000000e+00 
6.1666667e+00 5.9900000e+00 0.0000000e+00 
6.1666667e+00 6.0100000e+00 0.0000000e+00 
6.1666667e+00 6.0300000e+00 0.0000000e+00 
6.1933333e+00 5.9700000e+00 0.0000000e+00 
6.1933333e+00 5.9900000e+00 0.0000000e+00 
6.1933333e+00 6.0100000e+00 0.0000000e+00 
6.1933333e+00 6.0300000e+00 0.0000000e+00 
6.2200000e+00 5.9700000e+00 0.0000000e+00 
6.2200000e+00 5.9900000e+00 0.0000000e+00 
6.2200000e+00 6.0100000e+00 0.0000000e+00 
6.2200000e+00 6.0300000e+00 0.0000000e+00 
6.2466667e+00 5.9700000e+00 0.0000000e+00 
6.2466667e+00 5.9900000e+00 0.0000000e+00 
6.2466667e+00 6.0100000e+00 0.0000000e+00 
6.2466667e+00 6.0300000e+00 0.0000000e+00 
6.2733333e+00 5.9700000e+00 0.0000000e+00 
6.2733333e+00 5.9900000e+00 0.0000000e+00 
6.2733333e+00 6.0100000e+00 0.0000000e+00 
6.2733333e+00 6.0300000e+00 0.0000000e+00 
6.3000000e+00 5.9700000e+00 0.0000000e+00 
6.3000000e+00 5.9900000e+00 0.0000000e+00 
6.3000000e+00 6.0100000e+00 0.0000000e+00 
6.3000000e+00 6.0300000e+00 0.0000000e+00 
6.3266667e+00 5.9700000e+00 0.0000000e+00 
6.3266667e+00 5.9900000e+00 0.0000000e+00 
6.3266667e+00 6.0100000e+00 0.0000000e+00 
6.3266667e+00 6.0300000e+00 0.0000000e+00 
6.3533333e+00 5.9700000e+00 0.0000000e+00 
6.3533333e+00 5.9900000e+00 0.0000000e+00 
6.3533333e+00 6.0100000e+00 0.0000000e+00 
6.3533333e+00 6.0300000e+00 0.0000000e+00 
6.3800000e+00 5.9700000e+00 0.0000000e+00 
6.3800000e+00 5.9900000e+00 0.0000000e+00 
6.3800000e+00 6.0100000e+00 0.0000000e+00 
6.3800000e+00 6.0300000e+00 0.0000000e+00 
6.4066667e+00 5.9700000e+00 0.0000000e+00 
6.4066667e+00 5.9900000e+00 0.0000000e+00 
6.4066667e+00 6.0100000e+00 0.0000000e+00 
6.4066667e+00 6.0300000e+00 0.0000000e+00 
6.4333333e+00 5.9700000e+00 0.0000000e+00 
6.4333333e+00 5.9900000e+00 0.0000000e+00 
6.4333333e+00 6.0100000e+00 0.0000000e+00 
6.4333333e+00 6.0300000e+00 0.0000000e+00 
6.4600000e+00 5.9700000e+00 0.0000000e+00 
6.4600000e+00 5.9900000e+00 0.0000000e+00 
6.4600000e+00 6.0100000e+00 0.0000000e+00 
6.4600000e+00 6.0300000e+00 0.0000000e+00 
6.4866667e+00 5.9700000e+00 0.0000000e+00 
6.4866667e+00 5.9900000e+00 0.0000000e+00 
6.4866667e+00 6.0100000e+00 0.0000000e+00 
6.4866667e+00 6.0300000e+00 0.0000000e+00 
6.5133333e+00 5.9700000e+00 0.0000000e+00 
6.5133333e+00 5.9900000e+00 0.0000000e+00 
6.5133333e+00 6.0100000e+00 0.0000000e+00 
6.5133333e+00 6.0300000e+00 0.0000000e+00 
6.5400000e+00 5.9700000e+00 0.0000000e+00 
6.5400000e+00 5.9900000e+00 0.0000000e+00 
6.5400000e+00 6.0100000e+00 0.0000000e+00 
6.5400000e+00 6.0300000e+00 0.0000000e+00 
6.5666667e+00 5.9700000e+00 0.0000000e+00 
6.5666667e+00 5.9900000e+00 0.0000000e+00 
6.5666667e+00 6.0100000e+00 0.0000000e+00 
6.5666667e+00 6.0300000e+00 0.0000000e+00 
6.5933333e+00 5.9700000e+00 0.0000000e+00 
6.5933333e+00 5.9900000e+00 0.0000000e+00 
6.5933333e+00 6.0100000e+00 0.0000000e+00 
6.5933333e+00 6.0300000e+00 0.0000000e+00 
6.6200000e+00 5.9700000e+00 0.0000000e+00 
6.6200000e+00 5.9900000e+00 0.0000000e+00 
6.6200000e+00 6.0100000e+00 0.0000000e+00 
6.6200000e+00 6.0300000e+00 0.0000000e+00 
6.6466667e+00 5.9700000e+00 0.0000000e+00 
6.6466667e+00 5.9900000e+00 0.0000000e+00 
6.6466667e+00 6.0100000e+00 0.0000000e+00 
6.6466667e+00 6.0300000e+00 0.0000000e+00 
6.6733333e+00 5.9700000e+00 0.0000000e+00 
6.6733333e+00 5.9900000e+00 0.0000000e+00 
6.6733333e+00 6.0100000e+00 0.0000000e+00 
6.6733333e+00 6.0300000e+00 0.0000000e+00 
6.7000000e+00 5.9700000e+00 0.0000000e+00 
6.7000000e+00 5.9900000e+00 0.0000000e+00 
6.7000000e+00 6.0100000e+00 0.0000000e+00 
6.7000000e+00 6.0300000e+00 0.0000000e+00 
6.7266667e+00 5.9700000e+00 0.0000000e+00 
6.7266667e+00 5.9900000e+00 0.0000000e+00 
6.7266667e+00 6.0100000e+00 0.0000000e+00 
6.7266667e+00 6.0300000e+00 0.0000000e+00 
6.7533333e+00 5.9700000e+00 0.0000000e+00 
6.7533333e+00 5.9900000e+00 0.0000000e+00 
6.7533333e+00 6.0100000e+00 0.0000000e+00 
6.7533333e+00 6.0300000e+00 0.0000000e+00 
6.7800000e+00 5.9700000e+00 0.0000000e+00 
6.7800000e+00 5.9900000e+00 0.0000000e+00 
6.7800000e+00 6.0100000e+00 0.0000000e+00 
6.7800000e+00 6.0300000e+00 0.0000000e+00 
6.8066667e+00 5.9700000e+00 0.0000000e+00 
6.8066667e+00 5.9900000e+00 0.0000000e+00 
6.8066667e+00 6.0100000e+00 0.0000000e+00 
6.8066667e+00 6.0300000e+00 0.0000000e+00 
6.8333333e+00 5.9700000e+00 0.0000000e+00 
6.8333333e+00 5.9900000e+00 0.0000000e+00 
6.8333333e+00 6.0100000e+00 0.0000000e+00 
6.8333333e+00 6.0300000e+00 0.0000000e+00 
6.8600000e+00 5.9700000e+00 0.0000000e+00 
6.8600000e+00 5.9900000e+00 0.0000000e+00 
6.8600000e+00 6.0100000e+00 0.0000000e+00 
6.8600000e+00 6.0300000e+00 0.0000000e+00 
6.8866667e+00 5.9700000e+00 0.0000000e+00 
6.8866667e+00 5.9900000e+00 0.0000000e+00 
6.8866667e+00 6.0100000e+00 0.0000000e+00 
6.8866667e+00 6.0300000e+00 0.0000000e+00 
6.9133333e+00 5.9700000e+00 0.0000000e+00 
6.9133333e+00 5.9900000e+00 0.0000000e+00 
6.9133333e+00 6.0100000e+00 0.0000000e+00 
6.9133333e+00 6.0300000e+00 0.0000000e+00 
6.9400000e+00 5.9700000e+00 0.0000000e+00 
6.9400000e+00 5.9900000e+00 0.0000000e+00 
6.9400000e+00 6.0100000e+00 0.0000000e+00 
6.9400000e+00 6.0300000e+00 0.0000000e+00 
6.9666667e+00 5.9700000e+00 0.0000000e+00 
6.9666667e+00 5.9900000e+00 0.0000000e+00 
6.9666667e+00 6.0100000e+00 0.0000000e+00 
6.9666667e+00 6.0300000e+00 0.0000000e+00 
6.9933333e+00 5.9700000e+00 0.0000000e+00 
6.9933333e+00 5.9900000e+00 0.0000000e+00 
6.9933333e+00 6.0100000e+00 0.0000000e+00 
6.9933333e+00 6.0300000e+00 0.0000000e+00 
7.0200000e+00 5.9700000e+00 0.0000000e+00 
7.0200000e+00 5.9900000e+00 0.0000000e+00 
[...]
POINT_DATA 604
FIELD FieldData 2
DISPLACEMENT 3 604  float
0.0000000e+00 0.0000000e+00 0.0000000e+00 
0.0000000e+00 0.0000000e+00 0.0000000e+00 
-1.4529339e-07 -8.9896193e-08 0.0000000e+00 
-4.7573733e-08 -5.8632013e-08 0.0000000e+00 
0.0000000e+00 0.0000000e+00 0.0000000e+00 
4.4566882e-08 -5.9159212e-08 0.0000000e+00 
-2.9206764e-07 -2.7400461e-07 0.0000000e+00 
-9.7360878e-08 -2.5693635e-07 0.0000000e+00 
0.0000000e+00 0.0000000e+00 0.0000000e+00 
1.4608860e-07 -8.8785212e-08 0.0000000e+00 
9.6927645e-08 -2.6239776e-07 0.0000000e+00 
-4.3458363e-07 -6.1254787e-07 0.0000000e+00 
2.9228732e-07 -2.9499489e-07 0.0000000e+00 
-1.4378860e-07 -5.8643629e-07 0.0000000e+00 
1.4511260e-07 -5.8792168e-07 0.0000000e+00 
4.3572118e-07 -6.1124621e-07 0.0000000e+00 
-5.7292261e-07 -1.0540502e-06 0.0000000e+00 
-1.8950895e-07 -1.0377885e-06 0.0000000e+00 
1.9219045e-07 -1.0426726e-06 0.0000000e+00 
5.7549094e-07 -1.0744578e-06 0.0000000e+00 
-7.0726828e-07 -1.6393370e-06 0.0000000e+00 
-2.3411973e-07 -1.6146746e-06 0.0000000e+00 
2.3776802e-07 -1.6155791e-06 0.0000000e+00 
7.1170359e-07 -1.6375925e-06 0.0000000e+00 
-8.3720408e-07 -2.3210406e-06 0.0000000e+00 
-2.7780244e-07 -2.3054454e-06 0.0000000e+00 
2.8177451e-07 -2.3117203e-06 0.0000000e+00 
8.4481596e-07 -2.3415473e-06 0.0000000e+00 
-9.6506185e-07 -3.1291229e-06 0.0000000e+00 
-3.1692203e-07 -3.1140936e-06 0.0000000e+00 
3.2789186e-07 -3.1203514e-06 0.0000000e+00 
9.7257622e-07 -3.1494586e-06 0.0000000e+00 
-1.0878183e-06 -4.0600623e-06 0.0000000e+00 
-3.5821450e-07 -4.0373390e-06 0.0000000e+00 
3.6938246e-07 -4.0382070e-06 0.0000000e+00 
1.0981508e-06 -4.0582938e-06 0.0000000e+00 
-1.2075273e-06 -5.0779331e-06 0.0000000e+00 
-3.9808942e-07 -5.0646924e-06 0.0000000e+00 
4.0989344e-07 -5.0694424e-06 0.0000000e+00 
1.2195634e-06 -5.0978263e-06 0.0000000e+00 
-1.3241296e-06 -6.2227800e-06 0.0000000e+00 
-4.3658893e-07 -6.2011701e-06 0.0000000e+00 
4.4940293e-07 -6.2025815e-06 0.0000000e+00 
1.3369522e-06 -6.2212848e-06 0.0000000e+00 
-1.4371179e-06 -7.4487451e-06 0.0000000e+00 
-4.7397270e-07 -7.4367319e-06 0.0000000e+00 
4.8767745e-07 -7.4414436e-06 0.0000000e+00 
1.4509055e-06 -7.4685888e-06 0.0000000e+00 
-1.5467263e-06 -8.7952413e-06 0.0000000e+00 
-5.1020772e-07 -8.7748486e-06 0.0000000e+00 
5.2477809e-07 -8.7762413e-06 0.0000000e+00 
1.5612654e-06 -8.7937218e-06 0.0000000e+00 
-1.6528518e-06 -1.0216765e-05 0.0000000e+00 
-5.4534787e-07 -1.0205881e-05 0.0000000e+00 
5.6067588e-07 -1.0210537e-05 0.0000000e+00 
1.6682216e-06 -1.0236401e-05 0.0000000e+00 
-1.7556453e-06 -1.1752492e-05 0.0000000e+00 
-5.7935627e-07 -1.1733303e-05 0.0000000e+00 
5.9543741e-07 -1.1734684e-05 0.0000000e+00 
1.7716972e-06 -1.1750985e-05 0.0000000e+00 
-1.8550667e-06 -1.3357387e-05 0.0000000e+00 
-6.1227672e-07 -1.3347622e-05 0.0000000e+00 
6.2904287e-07 -1.3352243e-05 0.0000000e+00 
1.8718230e-06 -1.3376871e-05 0.0000000e+00 
-1.9511798e-06 -1.5070333e-05 0.0000000e+00 
-6.4408961e-07 -1.5052324e-05 0.0000000e+00 
6.6154285e-07 -1.5053702e-05 0.0000000e+00 
1.9686064e-06 -1.5068857e-05 0.0000000e+00 
-2.0440364e-06 -1.6846688e-05 0.0000000e+00 
-6.7481690e-07 -1.6838037e-05 0.0000000e+00 
6.9293787e-07 -1.6842645e-05 0.0000000e+00 
2.0620883e-06 -1.6866089e-05 0.0000000e+00 
-2.1336101e-06 -1.8725129e-05 0.0000000e+00 
-7.0445253e-07 -1.8708285e-05 0.0000000e+00 
7.2326553e-07 -1.8709671e-05 0.0000000e+00 
2.1523628e-06 -1.8723724e-05 0.0000000e+00 
-2.2200708e-06 -2.0661416e-05 0.0000000e+00 
-7.3300784e-07 -2.0653805e-05 0.0000000e+00 
7.5253496e-07 -2.0658397e-05 0.0000000e+00 
2.2393503e-06 -2.0680635e-05 0.0000000e+00 
-2.3029455e-06 -2.2693984e-05 0.0000000e+00 
-7.6068422e-07 -2.2678406e-05 0.0000000e+00 
7.8057634e-07 -2.2679277e-05 0.0000000e+00 
2.3235877e-06 -2.2692381e-05 0.0000000e+00 
-2.3822039e-06 -2.4778514e-05 0.0000000e+00 
-7.8753684e-07 -2.4771441e-05 0.0000000e+00 
8.0734757e-07 -2.4777446e-05 0.0000000e+00 
2.4051902e-06 -2.4798021e-05 0.0000000e+00 
-2.4597358e-06 -2.6943593e-05 0.0000000e+00 
-8.1012572e-07 -2.6937098e-05 0.0000000e+00 
8.3634431e-07 -2.6943092e-05 0.0000000e+00 
2.4823297e-06 -2.6963168e-05 0.0000000e+00 
-2.5325738e-06 -2.9186532e-05 0.0000000e+00 
-8.3485258e-07 -2.9172609e-05 0.0000000e+00 
8.6116154e-07 -2.9173542e-05 0.0000000e+00 
2.5581068e-06 -2.9185090e-05 0.0000000e+00 
-2.6031629e-06 -3.1473200e-05 0.0000000e+00 
-8.5821857e-07 -3.1468405e-05 0.0000000e+00 
8.8534661e-07 -3.1473114e-05 0.0000000e+00 
2.6301446e-06 -3.1492800e-05 0.0000000e+00 
-2.6708188e-06 -3.3842690e-05 0.0000000e+00 
-8.8039467e-07 -3.3829708e-05 0.0000000e+00 
9.0874689e-07 -3.3831222e-05 0.0000000e+00 
2.6991900e-06 -3.3841635e-05 0.0000000e+00 
-2.7356769e-06 -3.6250806e-05 0.0000000e+00 
-9.0148555e-07 -3.6247204e-05 0.0000000e+00 
9.3127545e-07 -3.6252004e-05 0.0000000e+00 
2.7651653e-06 -3.6270830e-05 0.0000000e+00 
-2.7973136e-06 -3.8736713e-05 0.0000000e+00 
-9.2159405e-07 -3.8724769e-05 0.0000000e+00 
9.5285144e-07 -3.8726337e-05 0.0000000e+00 
2.8285568e-06 -3.8735756e-05 0.0000000e+00 
-2.8562574e-06 -4.1255820e-05 0.0000000e+00 
-9.4062732e-07 -4.1253334e-05 0.0000000e+00 
9.7358487e-07 -4.1258213e-05 0.0000000e+00 
2.8888874e-06 -4.1276141e-05 0.0000000e+00 
-2.9120171e-06 -4.3847794e-05 0.0000000e+00 
-9.5868816e-07 -4.3836880e-05 0.0000000e+00 
9.9339344e-07 -4.3838507e-05 0.0000000e+00 
2.9467127e-06 -4.3846964e-05 0.0000000e+00 
-2.9651538e-06 -4.6467715e-05 0.0000000e+00 
-9.7568021e-07 -4.6466338e-05 0.0000000e+00 
1.0123909e-06 -4.6471312e-05 0.0000000e+00 
3.0015182e-06 -4.6488374e-05 0.0000000e+00 
-3.0151386e-06 -4.9155701e-05 0.0000000e+00 
-9.9171731e-07 -4.9145799e-05 0.0000000e+00 
1.0304830e-06 -4.9147489e-05 0.0000000e+00 
3.0538989e-06 -4.9155004e-05 0.0000000e+00 
-3.0625666e-06 -5.1866451e-05 0.0000000e+00 
-1.0066941e-06 -5.1866172e-05 0.0000000e+00 
1.0477927e-06 -5.1871253e-05 0.0000000e+00 
3.1033033e-06 -5.1887480e-05 0.0000000e+00 
-3.1068907e-06 -5.4640576e-05 0.0000000e+00 
-1.0207255e-06 -5.4631678e-05 0.0000000e+00 
1.0642241e-06 -5.4633435e-05 0.0000000e+00 
3.1503464e-06 -5.4640039e-05 0.0000000e+00 
-3.1487515e-06 -5.7432475e-05 0.0000000e+00 
-1.0337144e-06 -5.7433202e-05 0.0000000e+00 
1.0798922e-06 -5.7438370e-05 0.0000000e+00 
3.1944290e-06 -5.7453707e-05 0.0000000e+00 
-3.1872103e-06 -6.0283129e-05 0.0000000e+00 
-1.0459817e-06 -6.0275351e-05 0.0000000e+00 
1.0944955e-06 -6.0276601e-05 0.0000000e+00 
3.2365600e-06 -6.0282448e-05 0.0000000e+00 
-3.2226144e-06 -6.3146214e-05 0.0000000e+00 
-1.0574915e-06 -6.3147390e-05 0.0000000e+00 
1.1080830e-06 -6.3154184e-05 0.0000000e+00 
3.2764321e-06 -6.3168108e-05 0.0000000e+00 
-3.2566895e-06 -6.6052644e-05 0.0000000e+00 
-1.0646069e-06 -6.6054430e-05 0.0000000e+00 
1.1243371e-06 -6.6061234e-05 0.0000000e+00 
3.3123909e-06 -6.6074859e-05 0.0000000e+00 
-3.2862995e-06 -6.9000468e-05 0.0000000e+00 
-1.0741958e-06 -6.8994106e-05 0.0000000e+00 
1.1363862e-06 -6.8995499e-05 0.0000000e+00 
3.3476877e-06 -6.9000037e-05 0.0000000e+00 
-3.3142405e-06 -7.1953270e-05 0.0000000e+00 
-1.0824790e-06 -7.1956720e-05 0.0000000e+00 
1.1480542e-06 -7.1962229e-05 0.0000000e+00 
3.3795663e-06 -7.1975751e-05 0.0000000e+00 
-3.3395887e-06 -7.4954139e-05 0.0000000e+00 
-1.0897022e-06 -7.4948552e-05 0.0000000e+00 
1.1591087e-06 -7.4950588e-05 0.0000000e+00 
3.4090325e-06 -7.4954144e-05 0.0000000e+00 
-3.3626426e-06 -7.7955528e-05 0.0000000e+00 
-1.0959384e-06 -7.7960083e-05 0.0000000e+00 
1.1694992e-06 -7.7965729e-05 0.0000000e+00 
3.4358236e-06 -7.7978623e-05 0.0000000e+00 
-3.3828354e-06 -8.1000914e-05 0.0000000e+00 
-1.1013372e-06 -8.0996203e-05 0.0000000e+00 
1.1790939e-06 -8.0998310e-05 0.0000000e+00 
3.4605924e-06 -8.1001027e-05 0.0000000e+00 
-3.4008261e-06 -8.4042055e-05 0.0000000e+00 
-1.1057745e-06 -8.4047614e-05 0.0000000e+00 
1.1880407e-06 -8.4053373e-05 0.0000000e+00 
3.4827162e-06 -8.4065583e-05 0.0000000e+00 
-3.4160331e-06 -8.7123205e-05 0.0000000e+00 
-1.1093881e-06 -8.7119358e-05 0.0000000e+00 
1.1962203e-06 -8.7121535e-05 0.0000000e+00 
3.5028691e-06 -8.7123447e-05 0.0000000e+00 
-3.4291017e-06 -9.0195570e-05 0.0000000e+00 
-1.1120624e-06 -9.0202108e-05 0.0000000e+00 
1.2037744e-06 -9.0207985e-05 0.0000000e+00 
3.5204446e-06 -9.0219533e-05 0.0000000e+00 
-3.4394599e-06 -9.3304062e-05 0.0000000e+00 
-1.1139366e-06 -9.3301055e-05 0.0000000e+00 
1.2105835e-06 -9.3303302e-05 0.0000000e+00 
3.5361144e-06 -9.3304431e-05 0.0000000e+00 
-3.4477486e-06 -9.6399351e-05 0.0000000e+00 
-1.1148957e-06 -9.6406840e-05 0.0000000e+00 
1.2167910e-06 -9.6412840e-05 0.0000000e+00 
3.5492811e-06 -9.6423750e-05 0.0000000e+00 
-3.4534199e-06 -9.9527002e-05 0.0000000e+00 
-1.1150719e-06 -9.9524820e-05 0.0000000e+00 
1.2222864e-06 -9.9527134e-05 0.0000000e+00 
3.5605998e-06 -9.9527518e-05 0.0000000e+00 
-3.4571307e-06 -1.0263729e-04 0.0000000e+00 
-1.1143682e-06 -1.0264561e-04 0.0000000e+00 
1.2271976e-06 -1.0265171e-04 0.0000000e+00 
3.5694640e-06 -1.0266191e-04 0.0000000e+00 
-3.4579376e-06 -1.0577627e-04 0.0000000e+00 
-1.1131385e-06 -1.0577503e-04 0.0000000e+00 
1.2311959e-06 -1.0577677e-04 0.0000000e+00 
3.5769308e-06 -1.0577659e-04 0.0000000e+00 
-3.4561389e-06 -1.0889339e-04 0.0000000e+00 
-1.1113634e-06 -1.0890191e-04 0.0000000e+00 
1.2343244e-06 -1.0890979e-04 0.0000000e+00 
3.5827637e-06 -1.0891871e-04 0.0000000e+00 
-3.4537609e-06 -1.1202360e-04 0.0000000e+00 
-1.1050206e-06 -1.1203263e-04 0.0000000e+00 
1.2406822e-06 -1.1204052e-04 0.0000000e+00 
3.5850555e-06 -1.1204926e-04 0.0000000e+00 
-3.4473812e-06 -1.1516549e-04 0.0000000e+00 
-1.1017229e-06 -1.1516535e-04 0.0000000e+00 
1.2426500e-06 -1.1516722e-04 0.0000000e+00 
3.5874280e-06 -1.1516601e-04 0.0000000e+00 
-3.4399937e-06 -1.1827958e-04 0.0000000e+00 
-1.0973120e-06 -1.1829011e-04 0.0000000e+00 
1.2444673e-06 -1.1829654e-04 0.0000000e+00 
3.5869757e-06 -1.1830546e-04 0.0000000e+00 
-3.4307561e-06 -1.2141431e-04 0.0000000e+00 
-1.0920415e-06 -1.2141468e-04 0.0000000e+00 
1.2459062e-06 -1.2141725e-04 0.0000000e+00 
3.5846747e-06 -1.2141526e-04 0.0000000e+00 
-3.4198644e-06 -1.2451796e-04 0.0000000e+00 
-1.0860262e-06 -1.2452936e-04 0.0000000e+00 
1.2468937e-06 -1.2453592e-04 0.0000000e+00 
3.5804247e-06 -1.2454446e-04 0.0000000e+00 
-3.4068831e-06 -1.2763941e-04 0.0000000e+00 
-1.0794169e-06 -1.2764040e-04 0.0000000e+00 
1.2473167e-06 -1.2764302e-04 0.0000000e+00 
3.5747970e-06 -1.2764043e-04 0.0000000e+00 
-3.3923998e-06 -1.3072625e-04 0.0000000e+00 
-1.0721113e-06 -1.3073839e-04 0.0000000e+00 
1.2473198e-06 -1.3074506e-04 0.0000000e+00 
3.5673138e-06 -1.3075316e-04 0.0000000e+00 
-3.3759732e-06 -1.3382824e-04 0.0000000e+00 
-1.0642466e-06 -1.3382980e-04 0.0000000e+00 
1.2468076e-06 -1.3383249e-04 0.0000000e+00 
3.5585538e-06 -1.3382934e-04 0.0000000e+00 
-3.3581684e-06 -1.3689243e-04 0.0000000e+00 
-1.0557301e-06 -1.3690527e-04 0.0000000e+00 
1.2459160e-06 -1.3691204e-04 0.0000000e+00 
3.5480751e-06 -1.3691976e-04 0.0000000e+00 
-3.3385624e-06 -1.3996934e-04 0.0000000e+00 
-1.0467012e-06 -1.3997144e-04 0.0000000e+00 
1.2445512e-06 -1.3997418e-04 0.0000000e+00 
3.5364385e-06 -1.3997053e-04 0.0000000e+00 
-3.3177079e-06 -1.4300549e-04 0.0000000e+00 
-1.0370667e-06 -1.4301897e-04 0.0000000e+00 
1.2428497e-06 -1.4302585e-04 0.0000000e+00 
3.5232268e-06 -1.4303323e-04 0.0000000e+00 
-3.2952146e-06 -1.4605216e-04 0.0000000e+00 
-1.0269588e-06 -1.4605475e-04 0.0000000e+00 
1.2407286e-06 -1.4605755e-04 0.0000000e+00 
3.5089665e-06 -1.4605345e-04 0.0000000e+00 
-3.2716439e-06 -1.4905549e-04 0.0000000e+00 
-1.0163025e-06 -1.4906947e-04 0.0000000e+00 
1.2383052e-06 -1.4907644e-04 0.0000000e+00 
3.4932424e-06 -1.4908343e-04 0.0000000e+00 
-3.2461738e-06 -1.5206737e-04 0.0000000e+00 
-1.0054758e-06 -1.5207056e-04 0.0000000e+00 
1.2352555e-06 -1.5207270e-04 0.0000000e+00 
3.4770083e-06 -1.5206837e-04 0.0000000e+00 
-3.2189455e-06 -1.5503301e-04 0.0000000e+00 
-9.9449382e-07 -1.5504678e-04 0.0000000e+00 
1.2315922e-06 -1.5505569e-04 0.0000000e+00 
3.4602801e-06 -1.5506166e-04 0.0000000e+00 
-3.1924042e-06 -1.5799209e-04 0.0000000e+00 
-9.7890038e-07 -1.5800620e-04 0.0000000e+00 
1.2318880e-06 -1.5801516e-04 0.0000000e+00 
3.4407412e-06 -1.5802112e-04 0.0000000e+00 
-3.1628039e-06 -1.6094425e-04 0.0000000e+00 
-9.6712982e-07 -1.6094795e-04 0.0000000e+00 
1.2276989e-06 -1.6095021e-04 0.0000000e+00 
3.4224216e-06 -1.6094536e-04 0.0000000e+00 
-3.1332663e-06 -1.6384681e-04 0.0000000e+00 
-9.5460383e-07 -1.6386213e-04 0.0000000e+00 
1.2237103e-06 -1.6386943e-04 0.0000000e+00 
3.4023641e-06 -1.6387603e-04 0.0000000e+00 
-3.1031236e-06 -1.6675466e-04 0.0000000e+00 
-9.4157453e-07 -1.6675847e-04 0.0000000e+00 
1.2197123e-06 -1.6676147e-04 0.0000000e+00 
3.3813524e-06 -1.6675617e-04 0.0000000e+00 
-3.0723369e-06 -1.6961154e-04 0.0000000e+00 
-9.2819884e-07 -1.6962736e-04 0.0000000e+00 
1.2155840e-06 -1.6963479e-04 0.0000000e+00 
3.3595839e-06 -1.6964140e-04 0.0000000e+00 
-3.0406999e-06 -1.7247289e-04 0.0000000e+00 
-9.1461716e-07 -1.7247690e-04 0.0000000e+00 
1.2112390e-06 -1.7247995e-04 0.0000000e+00 
3.3373695e-06 -1.7247440e-04 0.0000000e+00 
-3.0085702e-06 -1.7528160e-04 0.0000000e+00 
-9.0074854e-07 -1.7529778e-04 0.0000000e+00 
1.2067894e-06 -1.7530531e-04 0.0000000e+00 
3.3145059e-06 -1.7531187e-04 0.0000000e+00 
-2.9757608e-06 -1.7809417e-04 0.0000000e+00 
-8.8671008e-07 -1.7809834e-04 0.0000000e+00 
1.2021707e-06 -1.7810143e-04 0.0000000e+00 
3.2912755e-06 -1.7809569e-04 0.0000000e+00 
-2.9425619e-06 -1.8085279e-04 0.0000000e+00 
-8.7243568e-07 -1.8086928e-04 0.0000000e+00 
1.1974772e-06 -1.8087690e-04 0.0000000e+00 
3.2675358e-06 -1.8088344e-04 0.0000000e+00 
-2.9088364e-06 -1.8361484e-04 0.0000000e+00 
-8.5803488e-07 -1.8361915e-04 0.0000000e+00 
1.1926494e-06 -1.8362227e-04 0.0000000e+00 
3.2435107e-06 -1.8361638e-04 0.0000000e+00 
-2.8748146e-06 -1.8632187e-04 0.0000000e+00 
-8.4344810e-07 -1.8633862e-04 0.0000000e+00 
1.1877724e-06 -1.8634633e-04 0.0000000e+00 
3.2191095e-06 -1.8635289e-04 0.0000000e+00 
-2.8404299e-06 -1.8903208e-04 0.0000000e+00 
-8.2876467e-07 -1.8903648e-04 0.0000000e+00 
1.1828040e-06 -1.8903963e-04 0.0000000e+00 
3.1944780e-06 -1.8903364e-04 0.0000000e+00 
-2.8058746e-06 -1.9168654e-04 0.0000000e+00 
-8.1395314e-07 -1.9170339e-04 0.0000000e+00 
1.1777984e-06 -1.9171116e-04 0.0000000e+00 
3.1695540e-06 -1.9171765e-04 0.0000000e+00 
-2.7706445e-06 -1.9434406e-04 0.0000000e+00 
-7.9936124e-07 -1.9434869e-04 0.0000000e+00 
1.1724533e-06 -1.9435108e-04 0.0000000e+00 
3.1449131e-06 -1.9434519e-04 0.0000000e+00 
-2.7344017e-06 -1.9694473e-04 0.0000000e+00 
-7.8508287e-07 -1.9696089e-04 0.0000000e+00 
1.1666862e-06 -1.9697072e-04 0.0000000e+00 
3.1210162e-06 -1.9697640e-04 0.0000000e+00 
-2.7002202e-06 -1.9953363e-04 0.0000000e+00 
-7.6613145e-07 -1.9954992e-04 0.0000000e+00 
1.1655652e-06 -1.9955980e-04 0.0000000e+00 
3.0948556e-06 -1.9956558e-04 0.0000000e+00 
-2.6639208e-06 -2.0211117e-04 0.0000000e+00 
-7.5182901e-07 -2.0211577e-04 0.0000000e+00 
1.1597575e-06 -2.0211820e-04 0.0000000e+00 
3.0707980e-06 -2.0211223e-04 0.0000000e+00 
-2.6284635e-06 -2.0463113e-04 0.0000000e+00 
-7.3714927e-07 -2.0464832e-04 0.0000000e+00 
1.1543574e-06 -2.0465627e-04 0.0000000e+00 
3.0459909e-06 -2.0466299e-04 0.0000000e+00 
-2.5936280e-06 -2.0715482e-04 0.0000000e+00 
-7.2225370e-07 -2.0715918e-04 0.0000000e+00 
1.1492304e-06 -2.0716238e-04 0.0000000e+00 
3.0207129e-06 -2.0715622e-04 0.0000000e+00 
-2.5587870e-06 -2.0962127e-04 0.0000000e+00 
-7.0740968e-07 -2.0963859e-04 0.0000000e+00 
1.1441266e-06 -2.0964659e-04 0.0000000e+00 
2.9956901e-06 -2.0965352e-04 0.0000000e+00 
-2.5242369e-06 -2.1209194e-04 0.0000000e+00 
-6.9265464e-07 -2.1209619e-04 0.0000000e+00 
1.1390421e-06 -2.1209938e-04 0.0000000e+00 
2.9706778e-06 -2.1209323e-04 0.0000000e+00 
-2.4897728e-06 -2.1450529e-04 0.0000000e+00 
-6.7800232e-07 -2.1452258e-04 0.0000000e+00 
1.1339782e-06 -2.1453059e-04 0.0000000e+00 
2.9459744e-06 -2.1453763e-04 0.0000000e+00 
-2.4557301e-06 -2.1692340e-04 0.0000000e+00 
-6.6345522e-07 -2.1692754e-04 0.0000000e+00 
1.1289645e-06 -2.1693071e-04 0.0000000e+00 
2.9212932e-06 -2.1692460e-04 0.0000000e+00 
-2.4218199e-06 -2.1928444e-04 0.0000000e+00 
-6.4905096e-07 -2.1930166e-04 0.0000000e+00 
1.1239772e-06 -2.1930967e-04 0.0000000e+00 
2.8970115e-06 -2.1931681e-04 0.0000000e+00 
-2.3884403e-06 -2.2165084e-04 0.0000000e+00 
-6.3477752e-07 -2.2165484e-04 0.0000000e+00 
1.1190588e-06 -2.2165799e-04 0.0000000e+00 
2.8727758e-06 -2.2165194e-04 0.0000000e+00 
-2.3552371e-06 -2.2396058e-04 0.0000000e+00 
-6.2068499e-07 -2.2397768e-04 0.0000000e+00 
1.1141718e-06 -2.2398568e-04 0.0000000e+00 
2.8490251e-06 -2.2399293e-04 0.0000000e+00 
-2.3226831e-06 -2.2627633e-04 0.0000000e+00 
-6.0673603e-07 -2.2628018e-04 0.0000000e+00 
1.1093827e-06 -2.2628330e-04 0.0000000e+00 
2.8253269e-06 -2.2627735e-04 0.0000000e+00 
-2.2903908e-06 -2.2853616e-04 0.0000000e+00 
-5.9301255e-07 -2.2855299e-04 0.0000000e+00 
1.1046206e-06 -2.2856093e-04 0.0000000e+00 
2.8021494e-06 -2.2856818e-04 0.0000000e+00 
-2.2583794e-06 -2.3080266e-04 0.0000000e+00 
-5.7974077e-07 -2.3080651e-04 0.0000000e+00 
1.0996880e-06 -2.3080879e-04 0.0000000e+00 
2.7795093e-06 -2.3080314e-04 0.0000000e+00 
-2.2257092e-06 -2.3301354e-04 0.0000000e+00 
-5.6714675e-07 -2.3302929e-04 0.0000000e+00 
1.0943618e-06 -2.3303920e-04 0.0000000e+00 
2.7584234e-06 -2.3304567e-04 0.0000000e+00 
-2.1960059e-06 -2.3521651e-04 0.0000000e+00 
-5.4999029e-07 -2.3523212e-04 0.0000000e+00 
1.0939365e-06 -2.3524206e-04 0.0000000e+00 
2.7352983e-06 -2.3524856e-04 0.0000000e+00 
-2.1648948e-06 -2.3741203e-04 0.0000000e+00 
-5.3790662e-07 -2.3741554e-04 0.0000000e+00 
1.0887651e-06 -2.3741772e-04 0.0000000e+00 
2.7146285e-06 -2.3741226e-04 0.0000000e+00 
-2.1349813e-06 -2.3955329e-04 0.0000000e+00 
-5.2574893e-07 -2.3956951e-04 0.0000000e+00 
1.0840371e-06 -2.3957729e-04 0.0000000e+00 
2.6938765e-06 -2.3958479e-04 0.0000000e+00 
-2.1065248e-06 -2.4170333e-04 0.0000000e+00 
-5.1354883e-07 -2.4170639e-04 0.0000000e+00 
1.0797375e-06 -2.4170932e-04 0.0000000e+00 
2.6728049e-06 -2.4170381e-04 0.0000000e+00 
-2.0783724e-06 -2.4380066e-04 0.0000000e+00 
-5.0168728e-07 -2.4381670e-04 0.0000000e+00 
1.0754899e-06 -2.4382443e-04 0.0000000e+00 
2.6526266e-06 -2.4383217e-04 0.0000000e+00 
-2.0512677e-06 -2.4590781e-04 0.0000000e+00 
-4.9008517e-07 -2.4591060e-04 0.0000000e+00 
1.0713944e-06 -2.4591347e-04 0.0000000e+00 
2.6326119e-06 -2.4590810e-04 0.0000000e+00 
-2.0245319e-06 -2.4796329e-04 0.0000000e+00 
-4.7885248e-07 -2.4797901e-04 0.0000000e+00 
1.0673427e-06 -2.4798665e-04 0.0000000e+00 
2.6134937e-06 -2.4799450e-04 0.0000000e+00 
-1.9989132e-06 -2.5002959e-04 0.0000000e+00 
-4.6788048e-07 -2.5003210e-04 0.0000000e+00 
1.0634622e-06 -2.5003490e-04 0.0000000e+00 
2.5945316e-06 -2.5002972e-04 0.0000000e+00 
-1.9736806e-06 -2.5204550e-04 0.0000000e+00 
-4.5729508e-07 -2.5206088e-04 0.0000000e+00 
1.0596266e-06 -2.5206843e-04 0.0000000e+00 
2.5765033e-06 -2.5207639e-04 0.0000000e+00 
-1.9496092e-06 -2.5407326e-04 0.0000000e+00 
-4.4698048e-07 -2.5407549e-04 0.0000000e+00 
1.0559682e-06 -2.5407822e-04 0.0000000e+00 
2.5586353e-06 -2.5407321e-04 0.0000000e+00 
-1.9259356e-06 -2.5605195e-04 0.0000000e+00 
-4.3706643e-07 -2.5606698e-04 0.0000000e+00 
1.0523546e-06 -2.5607444e-04 0.0000000e+00 
2.5417307e-06 -2.5608251e-04 0.0000000e+00 
-1.9034732e-06 -2.5804353e-04 0.0000000e+00 
-4.2741996e-07 -2.5804549e-04 0.0000000e+00 
1.0489329e-06 -2.5804814e-04 0.0000000e+00 
2.5249717e-06 -2.5804335e-04 0.0000000e+00 
-1.8814582e-06 -2.5998759e-04 0.0000000e+00 
-4.1819281e-07 -2.6000214e-04 0.0000000e+00 
1.0455469e-06 -2.6000947e-04 0.0000000e+00 
2.5091544e-06 -2.6001754e-04 0.0000000e+00 
-1.8602353e-06 -2.6194552e-04 0.0000000e+00 
-4.0951277e-07 -2.6194737e-04 0.0000000e+00 
1.0420807e-06 -2.6194917e-04 0.0000000e+00 
2.4939240e-06 -2.6194475e-04 0.0000000e+00 
-1.8385306e-06 -2.6385696e-04 0.0000000e+00 
-4.0167071e-07 -2.6387029e-04 0.0000000e+00 
1.0382345e-06 -2.6387941e-04 0.0000000e+00 
2.4805797e-06 -2.6388675e-04 0.0000000e+00 