# vtk DataFile Version 4.0
vtk output
ASCII
DATASET UNSTRUCTURED_GRID
POINTS 604 float
5.5000000e+00 5.9700000e+00 0.0000000e+00 
5.5000000e+00 5.9900000e+00 0.0000000e+00 
5.5266667e+00 5.9700000e+00 0.0000000e+00 
5.5266667e+00 5.9900000e+00 0.0000000e+00 
5.5000000e+00 6.0100000e+00 0.0000000e+00 
5.5266667e+00 6.0100000e+00 0.0000000e+00 
5.5533333e+00 5.9700000e+00 0.0000000e+00 
5.5533333e+00 5.9900000e+00 0.0000000e+00 
5.5000000e+00 6.0300000e+00 0.0000000e+00 
5.5266667e+00 6.0300000e+00 0.0000000e+00 
5.5533333e+00 6.0100000e+00 0.0000000e+00 
5.5800000e+00 5.9700000e+00 0.0000000e+00 
5.5533333e+00 6.0300000e+00 0.0000000e+00 
5.5800000e+00 5.9900000e+00 0.0000000e+00 
5.5800000e+00 6.0100000e+00 0.0000000e+00 
5.5800000e+00 6.0300000e+00 0.0000000e+00 
5.6066667e+00 5.9700000e+00 0.0000000e+00 
5.6066667e+00 5.9900000e+00 0.0000000e+00 
5.6066667e+00 6.0100000e+00 0.0000000e+00 
5.6066667e+00 6.0300000e+00 0.0000000e+00 
5.6333333e+00 5.9700000e+00 0.0000000e+00 
5.6333333e+00 5.9900000e+00 0.0000000e+00 
5.6333333e+00 6.0100000e+00 0.0000000e+00 
5.6333333e+00 6.0300000e+00 0.0000000e+00 
5.6600000e+00 5.9700000e+00 0.0000000e+00 
5.6600000e+00 5.9900000e+00 0.0000000e+00 
5.6600000e+00 6.0100000e+00 0.0000000e+00 
5.6600000e+00 6.0300000e+00 0.0000000e+00 
5.6866667e+00 5.9700000e+00 0.0000000e+00 
5.6866667e+00 5.9900000e+00 0.0000000e+00 
5.6866667e+00 6.0100000e+00 0.0000000e+00 
5.6866667e+00 6.0300000e+00 0.0000000e+00 
5.7133333e+00 5.9700000e+00 0.0000000e+00 
5.7133333e+00 5.9900000e+00 0.0000000e+00 
5.7133333e+00 6.0100000e+00 0.0000000e+00 
5.7133333e+00 6.0300000e+00 0.0000000e+00 
5.7400000e+00 5.9700000e+00 0.0000000e+00 
5.7400000e+00 5.9900000e+00 0.0000000e+00 
5.7400000e+00 6.0100000e+00 0.0000000e+00 
5.7400000e+00 6.0300000e+00 0.0000000e+00 
5.7666667e+00 5.9700000e+00 0.0000000e+00 
5.7666667e+00 5.9900000e+00 0.0000000e+00 
5.7666667e+00 6.0100000e+00 0.0000000e+00 
5.7666667e+00 6.0300000e+00 0.0000000e+00 
5.7933333e+00 5.9700000e+00 0.0000000e+00 
5.7933333e+00 5.9900000e+00 0.0000000e+00 
5.7933333e+00 6.0100000e+00 0.0000000e+00 
5.7933333e+00 6.0300000e+00 0.0000000e+00 
5.8200000e+00 5.9700000e+00 0.0000000e+00 
5.8200000e+00 5.9900000e+00 0.0000000e+00 
5.8200000e+00 6.0100000e+00 0.0000000e+00 
5.8200000e+00 6.0300000e+00 0.0000000e+00 
5.8466667e+00 5.9700000e+00 0.0000000e+00 
5.8466667e+00 5.9900000e+00 0.0000000e+00 
5.8466667e+00 6.0100000e+00 0.0000000e+00 
5.8466667e+00 6.0300000e+00 0.0000000e+00 
5.8733333e+00 5.9700000e+00 0.0000000e+00 
5.8733333e+00 5.9900000e+00 0.0000000e+00 
5.8733333e+00 6.0100000e+00 0.0000000e+00 
5.8733333e+00 6.0300000e+00 0.0000000e+00 
5.9000000e+00 5.9700000e+00 0.0000000e+00 
5.9000000e+00 5.9900000e+00 0.0000000e+00 
5.9000000e+00 6.0100000e+00 0.0000000e+00 
5.9000000e+00 6.0300000e+00 0.0000000e+00 
5.9266667e+00 5.9700000e+00 0.0000000e+00 
5.9266667e+00 5.9900000e+00 0.0000000e+00 
5.9266667e+00 6.0100000e+00 0.0000000e+00 
5.9266667e+00 6.0300000e+00 0.0000000e+00 
5.9533333e+00 5.9700000e+00 0.0000000e+00 
5.9533333e+00 5.9900000e+00 0.0000000e+00 
5.9533333e+00 6.0100000e+00 0.0000000e+00 
5.9533333e+00 6.0300000e+00 0.0000000e+00 
5.9800000e+00 5.9700000e+00 0.0000000e+00 
5.9800000e+00 5.9900000e+00 0.0000000e+00 
5.9800000e+00 6.0100000e+00 0.0000000e+00 
5.9800000e+00 6.0300000e+00 0.0000000e+00 
6.0066667e+00 5.9700000e+00 0.0000000e+00 
6.0066667e+00 5.9900000e+00 0.0000000e+00 
6.0066667e+00 6.0100000e+00 0.0000000e+00 
6.0066667e+00 6.0300000e+00 0.0000000e+00 
6.0333333e+00 5.9700000e+00 0.0000000e+00 
6.0333333e+00 5.9900000e+00 0.0000000e+00 
6.0333333e+00 6.0100000e+00 0.0000000e+00 
6.0333333e+00 6.0300000e+00 0.0000000e+00 
6.0600000e+00 5.9700000e+00 0.0000000e+00 
6.0600000e+00 5.9900000e+00 0.0000000e+00 
6.0600000e+00 6.0100000e+00 0.0000000e+00 
6.0600000e+00 6.0300000e+00 0.0000000e+00 
6.0866667e+00 5.9700000e+00 0.0000000e+00 
6.0866667e+00 5.9900000e+00 0.0000000e+00 
6.0866667e+00 6.0100000e+00 0.0000000e+00 
6.0866667e+00 6.0300000e+00 0.0000000e+00 
6.1133333e+00 5.9700000e+00 0.0000000e+00 
6.1133333e+00 5.9900000e+00 0.0000000e+00 
6.1133333e+00 6.0100000e+00 0.0000000e+00 
6.1133333e+00 6.0300000e+00 0.0000000e+00 
6.1400000e+00 5.9700000e+00 0.0000000e+00 
6.1400000e+00 5.9900000e+00 0.0000000e+00 
6.1400000e+00 6.0100000e+00 0.0000000e+00 
6.1400000e+00 6.0300000e+00 0.0000000e+00 
6.1666667e+00 5.9700000e+00 0.0000000e+00 
6.1666667e+00 5.9900000e+00 0.0000000e+00 
6.1666667e+00 6.0100000e+00 0.0000000e+00 
6.1666667e+00 6.0300000e+00 0.0000000e+00 
6.1933333e+00 5.9700000e+00 0.0000000e+00 
6.1933333e+00 5.9900000e+00 0.0000000e+00 
6.1933333e+00 6.0100000e+00 0.0000000e+00 
6.1933333e+00 6.0300000e+00 0.0000000e+00 
6.2200000e+00 5.9700000e+00 0.0000000e+00 
6.2200000e+00 5.9900000e+00 0.0000000e+00 
6.2200000e+00 6.0100000e+00 0.0000000e+00 
6.2200000e+00 6.0300000e+00 0.0000000e+00 
6.2466667e+00 5.9700000e+00 0.0000000e+00 
6.2466667e+00 5.9900000e+00 0.0000000e+00 
6.2466667e+00 6.0100000e+00 0.0000000e+00 
6.2466667e+00 6.0300000e+00 0.0000000e+00 
6.2733333e+00 5.9700000e+00 0.0000000e+00 
6.2733333e+00 5.9900000e+00 0.0000000e+00 
6.2733333e+00 6.0100000e+00 0.0000000e+00 
6.2733333e+00 6.0300000e+00 0.0000000e+00 
6.3000000e+00 5.9700000e+00 0.0000000e+00 
6.3000000e+00 5.9900000e+00 0.0000000e+00 
6.3000000e+00 6.0100000e+00 0.0000000e+00 
6.3000000e+00 6.0300000e+00 0.0000000e+00 
6.3266667e+00 5.9700000e+00 0.0000000e+00 
6.3266667e+00 5.9900000e+00 0.0000000e+00 
6.3266667e+00 6.0100000e+00 0.0000000e+00 
6.3266667e+00 6.0300000e+00 0.0000000e+00 
6.3533333e+00 5.9700000e+00 0.0000000e+00 
6.3533333e+00 5.9900000e+00 0.0000000e+00 
6.3533333e+00 6.0100000e+00 0.0000000e+00 
6.3533333e+00 6.0300000e+00 0.0000000e+00 
6.3800000e+00 5.9700000e+00 0.0000000e+00 
6.3800000e+00 5.9900000e+00 0.0000000e+00 
6.3800000e+00 6.0100000e+00 0.0000000e+00 
6.3800000e+00 6.0300000e+00 0.0000000e+00 
6.4066667e+00 5.9700000e+00 0.0000000e+00 
6.4066667e+00 5.9900000e+00 0.0000000e+00 
6.4066667e+00 6.0100000e+00 0.0000000e+00 
6.4066667e+00 6.0300000e+00 0.0000000e+00 
6.4333333e+00 5.9700000e+00 0.0000000e+00 
6.4333333e+00 5.9900000e+00 0.0000000e+00 
6.4333333e+00 6.0100000e+00 0.0000000e+00 
6.4333333e+00 6.0300000e+00 0.0000000e+00 
6.4600000e+00 5.9700000e+00 0.0000000e+00 
6.4600000e+00 5.9900000e+00 0.0000000e+00 
6.4600000e+00 6.0100000e+00 0.0000000e+00 
6.4600000e+00 6.0300000e+00 0.0000000e+00 
6.4866667e+00 5.9700000e+00 0.0000000e+00 
6.4866667e+00 5.9900000e+00 0.0000000e+00 
6.4866667e+00 6.0100000e+00 0.0000000e+00 
6.4866667e+00 6.0300000e+00 0.0000000e+00 
6.5133333e+00 5.9700000e+00 0.0000000e+00 
6.5133333e+00 5.9900000e+00 0.0000000e+00 
6.5133333e+00 6.0100000e+00 0.0000000e+00 
6.5133333e+00 6.0300000e+00 0.0000000e+00 
6.5400000e+00 5.9700000e+00 0.0000000e+00 
6.5400000e+00 5.9900000e+00 0.0000000e+00 
6.5400000e+00 6.0100000e+00 0.0000000e+00 
6.5400000e+00 6.0300000e+00 0.0000000e+00 
6.5666667e+00 5.9700000e+00 0.0000000e+00 
6.5666667e+00 5.9900000e+00 0.0000000e+00 
6.5666667e+00 6.0100000e+00 0.0000000e+00 
6.5666667e+00 6.0300000e+00 0.0000000e+00 
6.5933333e+00 5.9700000e+00 0.0000000e+00 
6.5933333e+00 5.9900000e+00 0.0000000e+00 
6.5933333e+00 6.0100000e+00 0.0000000e+00 
6.5933333e+00 6.0300000e+00 0.0000000e+00 
6.6200000e+00 5.9700000e+00 0.0000000e+00 
6.6200000e+00 5.9900000e+00 0.0000000e+00 
6.6200000e+00 6.0100000e+00 0.0000000e+00 
6.6200000e+00 6.0300000e+00 0.0000000e+00 
6.6466667e+00 5.9700000e+00 0.0000000e+00 
6.6466667e+00 5.9900000e+00 0.0000000e+00 
6.6466667e+00 6.0100000e+00 0.0000000e+00 
6.6466667e+00 6.0300000e+00 0.0000000e+00 
6.6733333e+00 5.9700000e+00 0.0000000e+00 
6.6733333e+00 5.9900000e+00 0.0000000e+00 
6.6733333e+00 6.0100000e+00 0.0000000e+00 
6.6733333e+00 6.0300000e+00 0.0000000e+00 
6.7000000e+00 5.9700000e+00 0.0000000e+00 
6.7000000e+00 5.9900000e+00 0.0000000e+00 
6.7000000e+00 6.0100000e+00 0.0000000e+00 
6.7000000e+00 6.0300000e+00 0.0000000e+00 
6.7266667e+00 5.9700000e+00 0.0000000e+00 
6.7266667e+00 5.9900000e+00 0.0000000e+00 
6.7266667e+00 6.0100000e+00 0.0000000e+00 
6.7266667e+00 6.0300000e+00 0.0000000e+00 
6.7533333e+00 5.9700000e+00 0.0000000e+00 
6.7533333e+00 5.9900000e+00 0.0000000e+00 
6.7533333e+00 6.0100000e+00 0.0000000e+00 
6.7533333e+00 6.0300000e+00 0.0000000e+00 
6.7800000e+00 5.9700000e+00 0.0000000e+00 
6.7800000e+00 5.9900000e+00 0.0000000e+00 
6.7800000e+00 6.0100000e+00 0.0000000e+00 
6.7800000e+00 6.0300000e+00 0.0000000e+00 
6.8066667e+00 5.9700000e+00 0.0000000e+00 
6.8066667e+00 5.9900000e+00 0.0000000e+00 
6.8066667e+00 6.0100000e+00 0.0000000e+00 
6.8066667e+00 6.0300000e+00 0.0000000e+00 
6.8333333e+00 5.9700000e+00 0.0000000e+00 
6.8333333e+00 5.9900000e+00 0.0000000e+00 
6.8333333e+00 6.0100000e+00 0.0000000e+00 
6.8333333e+00 6.0300000e+00 0.0000000e+00 
6.8600000e+00 5.9700000e+00 0.0000000e+00 
6.8600000e+00 5.9900000e+00 0.0000000e+00 
6.8600000e+00 6.0100000e+00 0.0000000e+00 
6.8600000e+00 6.0300000e+00 0.0000000e+00 
6.8866667e+00 5.9700000e+00 0.0000000e+00 
6.8866667e+00 5.9900000e+00 0.0000000e+00 
6.8866667e+00 6.0100000e+00 0.0000000e+00 
6.8866667e+00 6.0300000e+00 0.0000000e+00 
6.9133333e+00 5.9700000e+00 0.0000000e+00 
6.9133333e+00 5.9900000e+00 0.0000000e+00 
6.9133333e+00 6.0100000e+00 0.0000000e+00 
6.9133333e+00 6.0300000e+00 0.0000000e+00 
6.9400000e+00 5.9700000e+00 0.0000000e+00 
6.9400000e+00 5.9900000e+00 0.0000000e+00 
6.9400000e+00 6.0100000e+00 0.0000000e+00 
6.9400000e+00 6.0300000e+00 0.0000000e+00 
6.9666667e+00 5.9700000e+00 0.0000000e+00 
6.9666667e+00 5.9900000e+00 0.0000000e+00 
6.9666667e+00 6.0100000e+00 0.0000000e+00 
6.9666667e+00 6.0300000e+00 0.0000000e+00 
6.9933333e+00 5.9700000e+00 0.0000000e+00 
6.9933333e+00 5.9900000e+00 0.0000000e+00 
6.9933333e+00 6.0100000e+00 0.0000000e+00 
6.9933333e+00 6.0300000e+00 0.0000000e+00 
7.0200000e+00 5.9700000e+00 0.0000000e+00 
7.0200000e+00 5.9900000e+00 0.0000000e+00 
[...]
POINT_DATA 604
FIELD FieldData 2
DISPLACEMENT 3 604  float
0.0000000e+00 0.0000000e+00 0.0000000e+00 
0.0000000e+00 0.0000000e+00 0.0000000e+00 
1.2097368e-04 7.3861438e-05 0.0000000e+00 
3.8170507e-05 4.8203580e-05 0.0000000e+00 
0.0000000e+00 0.0000000e+00 0.0000000e+00 
-3.8871709e-05 4.7979435e-05 0.0000000e+00 
2.4307778e-04 2.3677584e-04 0.0000000e+00 
8.0239510e-05 2.1516954e-04 0.0000000e+00 
0.0000000e+00 0.0000000e+00 0.0000000e+00 
-1.2182723e-04 7.3240545e-05 0.0000000e+00 
-8.2528217e-05 2.1443177e-04 0.0000000e+00 
3.6223740e-04 5.1162810e-04 0.0000000e+00 
-2.4570949e-04 2.3467685e-04 0.0000000e+00 
1.1858703e-04 4.8910906e-04 0.0000000e+00 
-1.2420422e-04 4.8755052e-04 0.0000000e+00 
-3.6838498e-04 5.0699965e-04 0.0000000e+00 
4.7769959e-04 8.9291951e-04 0.0000000e+00 
1.5516123e-04 8.6975866e-04 0.0000000e+00 
-1.6670771e-04 8.6710520e-04 0.0000000e+00 
-4.8992466e-04 8.8504154e-04 0.0000000e+00 
5.8917658e-04 1.3789966e-03 0.0000000e+00 
1.8924980e-04 1.3548162e-03 0.0000000e+00 
-2.1008229e-04 1.3507505e-03 0.0000000e+00 
-6.1083461e-04 1.3668265e-03 0.0000000e+00 
6.9632037e-04 1.9676587e-03 0.0000000e+00 
2.2053318e-04 1.9422352e-03 0.0000000e+00 
-2.5473720e-04 1.9365375e-03 0.0000000e+00 
-7.3149381e-04 1.9506077e-03 0.0000000e+00 
7.9882077e-04 2.6569148e-03 0.0000000e+00 
2.4866830e-04 2.6299761e-03 0.0000000e+00 
-3.0104270e-04 2.6223733e-03 0.0000000e+00 
-8.5225500e-04 2.6341426e-03 0.0000000e+00 
8.9638823e-04 3.4447481e-03 0.0000000e+00 
2.7336765e-04 3.4160338e-03 0.0000000e+00 
-3.4928416e-04 3.4062703e-03 0.0000000e+00 
-9.7349763e-04 3.4154526e-03 0.0000000e+00 
9.8876842e-04 4.3290988e-03 0.0000000e+00 
2.9433328e-04 4.2984352e-03 0.0000000e+00 
-3.9979733e-04 4.2863401e-03 0.0000000e+00 
-1.0955348e-03 4.2928497e-03 0.0000000e+00 
1.0756929e-03 5.3081059e-03 0.0000000e+00 
3.1129603e-04 5.2752409e-03 0.0000000e+00 
-4.5286067e-04 5.2605772e-03 0.0000000e+00 
-1.2186636e-03 5.2640839e-03 0.0000000e+00 
1.1569404e-03 6.3797143e-03 0.0000000e+00 
3.2400562e-04 6.3445086e-03 0.0000000e+00 
-5.0874222e-04 6.3271252e-03 0.0000000e+00 
-1.3431728e-03 6.3275850e-03 0.0000000e+00 
1.2322807e-03 7.5421126e-03 0.0000000e+00 
3.3223367e-04 7.5043372e-03 0.0000000e+00 
-5.6768407e-04 7.4840265e-03 0.0000000e+00 
-1.4693164e-03 7.4811316e-03 0.0000000e+00 
1.3015336e-03 8.7932781e-03 0.0000000e+00 
3.3576621e-04 8.7528261e-03 0.0000000e+00 
-6.2991804e-04 8.7294662e-03 0.0000000e+00 
-1.5973470e-03 8.7232048e-03 0.0000000e+00 
1.3645037e-03 1.0131454e-02 0.0000000e+00 
3.3441077e-04 1.0088118e-02 0.0000000e+00 
-6.9564991e-04 1.0061526e-02 0.0000000e+00 
-1.7274798e-03 1.0051613e-02 0.0000000e+00 
1.4210465e-03 1.1554650e-02 0.0000000e+00 
3.2798838e-04 1.1508354e-02 0.0000000e+00 
-7.6507719e-04 1.1478435e-02 0.0000000e+00 
-1.8599361e-03 1.1464887e-02 0.0000000e+00 
1.4709994e-03 1.3061164e-02 0.0000000e+00 
3.1633966e-04 1.3011720e-02 0.0000000e+00 
-8.3837203e-04 1.2978314e-02 0.0000000e+00 
-1.9948946e-03 1.2960868e-02 0.0000000e+00 
1.5142507e-03 1.4649039e-02 0.0000000e+00 
2.9931814e-04 1.4596397e-02 0.0000000e+00 
-9.1570019e-04 1.4559436e-02 0.0000000e+00 
-2.1325483e-03 1.4538134e-02 0.0000000e+00 
1.5506683e-03 1.6316625e-02 0.0000000e+00 
2.7679480e-04 1.6260619e-02 0.0000000e+00 
-9.9720289e-04 1.6219962e-02 0.0000000e+00 
-2.2730412e-03 1.6194561e-02 0.0000000e+00 
1.5801705e-03 1.8062003e-02 0.0000000e+00 
2.4865328e-04 1.8002606e-02 0.0000000e+00 
-1.0830164e-03 1.7958207e-02 0.0000000e+00 
-2.4165406e-03 1.7928776e-02 0.0000000e+00 
1.6026515e-03 1.9883572e-02 0.0000000e+00 
2.1479382e-04 1.9820637e-02 0.0000000e+00 
-1.1732524e-03 1.9772374e-02 0.0000000e+00 
-2.5631605e-03 1.9738687e-02 0.0000000e+00 
1.6180555e-03 2.1779448e-02 0.0000000e+00 
1.7512709e-04 2.1712968e-02 0.0000000e+00 
-1.2680189e-03 2.1660831e-02 0.0000000e+00 
-2.7130468e-03 2.1622968e-02 0.0000000e+00 
1.6263253e-03 2.3748036e-02 0.0000000e+00 
1.2956562e-04 2.3677913e-02 0.0000000e+00 
-1.3674344e-03 2.3621808e-02 0.0000000e+00 
-2.8662791e-03 2.3579653e-02 0.0000000e+00 
1.6274163e-03 2.5787665e-02 0.0000000e+00 
7.8077034e-05 2.5713811e-02 0.0000000e+00 
-1.4715294e-03 2.5653657e-02 0.0000000e+00 
-3.0229939e-03 2.5607092e-02 0.0000000e+00 
1.6213152e-03 2.7896586e-02 0.0000000e+00 
2.0595944e-05 2.7819020e-02 0.0000000e+00 
-1.5804119e-03 2.7754831e-02 0.0000000e+00 
-3.1832842e-03 2.7703963e-02 0.0000000e+00 
1.6079761e-03 3.0073337e-02 0.0000000e+00 
-4.2923009e-05 2.9991954e-02 0.0000000e+00 
-1.6941315e-03 2.9923649e-02 0.0000000e+00 
-3.3471959e-03 2.9868297e-02 0.0000000e+00 
1.5873981e-03 3.2316166e-02 0.0000000e+00 
-1.1250985e-04 3.2231004e-02 0.0000000e+00 
-1.8127406e-03 3.2158600e-02 0.0000000e+00 
-3.5148286e-03 3.2098895e-02 0.0000000e+00 
1.5595574e-03 3.4623653e-02 0.0000000e+00 
-1.8818746e-04 3.4534619e-02 0.0000000e+00 
-1.9362723e-03 3.4458055e-02 0.0000000e+00 
-3.6862016e-03 3.4393827e-02 0.0000000e+00 
1.5244749e-03 3.6994091e-02 0.0000000e+00 
-2.6996780e-04 3.6901237e-02 0.0000000e+00 
-2.0647604e-03 3.6820541e-02 0.0000000e+00 
-3.8613960e-03 3.6751937e-02 0.0000000e+00 
1.4821450e-03 3.9426100e-02 0.0000000e+00 
-3.5785547e-04 3.9329348e-02 0.0000000e+00 
-2.1982196e-03 3.9244475e-02 0.0000000e+00 
-4.0404098e-03 3.9171340e-02 0.0000000e+00 
1.4326063e-03 4.1918020e-02 0.0000000e+00 
-4.5184471e-04 4.1817434e-02 0.0000000e+00 
-2.3366659e-03 4.1728424e-02 0.0000000e+00 
-4.2233091e-03 4.1650915e-02 0.0000000e+00 
1.3758695e-03 4.4468511e-02 0.0000000e+00 
-5.5192351e-04 4.4364028e-02 0.0000000e+00 
-2.4800974e-03 4.4270847e-02 0.0000000e+00 
-4.4100727e-03 4.4188824e-02 0.0000000e+00 
1.3119894e-03 4.7075962e-02 0.0000000e+00 
-6.5807027e-04 4.6967653e-02 0.0000000e+00 
-2.6285142e-03 4.6870353e-02 0.0000000e+00 
-4.6007531e-03 4.6783982e-02 0.0000000e+00 
1.2409912e-03 4.9739069e-02 0.0000000e+00 
-7.7025804e-04 4.9626886e-02 0.0000000e+00 
-2.7818994e-03 4.9525445e-02 0.0000000e+00 
-4.7953116e-03 4.9434600e-02 0.0000000e+00 
1.1629441e-03 5.2456271e-02 0.0000000e+00 
-8.8845108e-04 5.2340293e-02 0.0000000e+00 
-2.9402386e-03 5.2234774e-02 0.0000000e+00 
-4.9937885e-03 5.2139627e-02 0.0000000e+00 
1.0778845e-03 5.5226302e-02 0.0000000e+00 
-1.0126079e-03 5.5106494e-02 0.0000000e+00 
-3.1035009e-03 5.4996881e-02 0.0000000e+00 
-5.1961316e-03 5.4897320e-02 0.0000000e+00 
9.8589340e-04 5.8047645e-02 0.0000000e+00 
-1.1426805e-03 5.7924091e-02 0.0000000e+00 
-3.2716585e-03 5.7810468e-02 0.0000000e+00 
-5.4023716e-03 5.7706664e-02 0.0000000e+00 
8.8704080e-04 6.0919039e-02 0.0000000e+00 
-1.2786259e-03 6.0791738e-02 0.0000000e+00 
-3.4446970e-03 6.0674109e-02 0.0000000e+00 
-5.6124451e-03 6.0566041e-02 0.0000000e+00 
7.8140462e-04 6.3839155e-02 0.0000000e+00 
-1.4203593e-03 6.3708114e-02 0.0000000e+00 
-3.6225301e-03 6.3586491e-02 0.0000000e+00 
-5.8263648e-03 6.3474141e-02 0.0000000e+00 
6.6908465e-04 6.6806616e-02 0.0000000e+00 
-1.5678295e-03 6.6671926e-02 0.0000000e+00 
-3.8051491e-03 6.6546399e-02 0.0000000e+00 
-6.0441220e-03 6.6429941e-02 0.0000000e+00 
5.5014027e-04 6.9820269e-02 0.0000000e+00 
-1.7209739e-03 6.9681920e-02 0.0000000e+00 
-3.9924950e-03 6.9552495e-02 0.0000000e+00 
-6.2656368e-03 6.9431844e-02 0.0000000e+00 
4.2467544e-04 7.2878747e-02 0.0000000e+00 
-1.8797211e-03 7.2736833e-02 0.0000000e+00 
-4.1845171e-03 7.2603594e-02 0.0000000e+00 
-6.4909206e-03 7.2478936e-02 0.0000000e+00 
2.9275833e-04 7.5980928e-02 0.0000000e+00 
-2.0439971e-03 7.5835447e-02 0.0000000e+00 
-4.3811525e-03 7.5698411e-02 0.0000000e+00 
-6.7198813e-03 7.5569668e-02 0.0000000e+00 
1.5450349e-04 7.9125493e-02 0.0000000e+00 
-2.2137246e-03 7.8976542e-02 0.0000000e+00 
-4.5823433e-03 7.8835796e-02 0.0000000e+00 
-6.9525215e-03 7.8703158e-02 0.0000000e+00 
9.9847477e-06 8.2311356e-02 0.0000000e+00 
-2.3888223e-03 8.2158941e-02 0.0000000e+00 
-4.7880198e-03 8.2014508e-02 0.0000000e+00 
-7.1887408e-03 8.1877905e-02 0.0000000e+00 
-1.4067598e-04 8.5537245e-02 0.0000000e+00 
-2.5692069e-03 8.5381466e-02 0.0000000e+00 
-4.9981170e-03 8.5233436e-02 0.0000000e+00 
-7.4285360e-03 8.5093059e-02 0.0000000e+00 
-2.9740022e-04 8.8802108e-02 0.0000000e+00 
-2.7547907e-03 8.8642977e-02 0.0000000e+00 
-5.2125593e-03 8.8491380e-02 0.0000000e+00 
-7.6717999e-03 8.8347166e-02 0.0000000e+00 
-4.6005964e-04 9.2104721e-02 0.0000000e+00 
-2.9454852e-03 9.1942340e-02 0.0000000e+00 
-5.4312764e-03 9.1787269e-02 0.0000000e+00 
-7.9185240e-03 9.1639409e-02 0.0000000e+00 
-6.2857221e-04 9.5444067e-02 0.0000000e+00 
-3.1411978e-03 9.5278454e-02 0.0000000e+00 
-5.6541873e-03 9.5119942e-02 0.0000000e+00 
-8.1685953e-03 9.4968382e-02 0.0000000e+00 
-8.0280407e-04 9.8818968e-02 0.0000000e+00 
-3.3418358e-03 9.8650225e-02 0.0000000e+00 
-5.8812171e-03 9.8488368e-02 0.0000000e+00 
-8.4220009e-03 9.8333298e-02 0.0000000e+00 
-9.8267214e-04 1.0222844e-01 0.0000000e+00 
-3.5473012e-03 1.0205659e-01 0.0000000e+00 
-6.1122802e-03 1.0189142e-01 0.0000000e+00 
-8.6786247e-03 1.0173280e-01 0.0000000e+00 
-1.1680387e-03 1.0567135e-01 0.0000000e+00 
-3.7574986e-03 1.0549650e-01 0.0000000e+00 
-6.3472975e-03 1.0532813e-01 0.0000000e+00 
-8.9384507e-03 1.0516612e-01 0.0000000e+00 
-1.3587980e-03 1.0914672e-01 0.0000000e+00 
-3.9723339e-03 1.0896891e-01 0.0000000e+00 
-6.5862033e-03 1.0879738e-01 0.0000000e+00 
-9.2013663e-03 1.0863203e-01 0.0000000e+00 
-1.5548297e-03 1.1265356e-01 0.0000000e+00 
-4.1916883e-03 1.1247284e-01 0.0000000e+00 
-6.8288769e-03 1.1229820e-01 0.0000000e+00 
-9.4673362e-03 1.1212952e-01 0.0000000e+00 
-1.7559934e-03 1.1619085e-01 0.0000000e+00 
-4.4154718e-03 1.1600731e-01 0.0000000e+00 
-7.0752665e-03 1.1582967e-01 0.0000000e+00 
-9.7363169e-03 1.1565784e-01 0.0000000e+00 
-1.9622068e-03 1.1975771e-01 0.0000000e+00 
-4.6435854e-03 1.1957139e-01 0.0000000e+00 
-7.3252789e-03 1.1939078e-01 0.0000000e+00 
-1.0008189e-02 1.1921576e-01 0.0000000e+00 
-2.1733274e-03 1.2335315e-01 0.0000000e+00 
-4.8759310e-03 1.2316414e-01 0.0000000e+00 
-7.5788317e-03 1.2298066e-01 0.0000000e+00 
-1.0282933e-02 1.2280264e-01 0.0000000e+00 
-2.3892721e-03 1.2697630e-01 0.0000000e+00 
-5.1124054e-03 1.2678464e-01 0.0000000e+00 
-7.8358348e-03 1.2659835e-01 0.0000000e+00 
-1.0560425e-02 1.2641728e-01 0.0000000e+00 
-2.6098950e-03 1.3062622e-01 0.0000000e+00 
-5.3529113e-03 1.3043201e-01 0.0000000e+00 
-8.0962053e-03 1.3024299e-01 0.0000000e+00 
-1.0840645e-02 1.3005906e-01 0.0000000e+00 
-2.8351141e-03 1.3430209e-01 0.0000000e+00 
-5.5973448e-03 1.3410536e-01 0.0000000e+00 
-8.3598524e-03 1.3391366e-01 0.0000000e+00 
-1.1123466e-02 1.3372684e-01 0.0000000e+00 
-3.0647822e-03 1.3800298e-01 0.0000000e+00 
-5.8456085e-03 1.3780384e-01 0.0000000e+00 
-8.6266925e-03 1.3760955e-01 0.0000000e+00 
-1.1408867e-02 1.3742002e-01 0.0000000e+00 
-3.2988191e-03 1.4172813e-01 0.0000000e+00 
-6.0975982e-03 1.4152661e-01 0.0000000e+00 
-8.8966348e-03 1.4132977e-01 0.0000000e+00 
-1.1696723e-02 1.4113750e-01 0.0000000e+00 
-3.5370766e-03 1.4547665e-01 0.0000000e+00 
-6.3532173e-03 1.4527284e-01 0.0000000e+00 
-9.1695958e-03 1.4507356e-01 0.0000000e+00 
-1.1987011e-02 1.4487872e-01 0.0000000e+00 
-3.7794768e-03 1.4924778e-01 0.0000000e+00 
-6.6123619e-03 1.4904173e-01 0.0000000e+00 
-9.4454849e-03 1.4884004e-01 0.0000000e+00 
-1.2279605e-02 1.4864261e-01 0.0000000e+00 
-4.0258712e-03 1.5304069e-01 0.0000000e+00 
-6.8749363e-03 1.5283248e-01 0.0000000e+00 
-9.7242189e-03 1.5262850e-01 0.0000000e+00 
-1.2574484e-02 1.5242865e-01 0.0000000e+00 
-4.2761854e-03 1.5685467e-01 0.0000000e+00 
-7.1408365e-03 1.5664435e-01 0.0000000e+00 
-1.0005708e-02 1.5643810e-01 0.0000000e+00 
-1.2871524e-02 1.5623580e-01 0.0000000e+00 
-4.5302721e-03 1.6068890e-01 0.0000000e+00 
-7.4099683e-03 1.6047655e-01 0.0000000e+00 
-1.0289869e-02 1.6026814e-01 0.0000000e+00 
-1.3170704e-02 1.6006356e-01 0.0000000e+00 
-4.7880379e-03 1.6454268e-01 0.0000000e+00 
-7.6822364e-03 1.6432836e-01 0.0000000e+00 
-1.0576634e-02 1.6411784e-01 0.0000000e+00 
-1.3471910e-02 1.6391101e-01 0.0000000e+00 
-5.0493668e-03 1.6841531e-01 0.0000000e+00 
-7.9575279e-03 1.6819907e-01 0.0000000e+00 
-1.0865886e-02 1.6798648e-01 0.0000000e+00 
-1.3775101e-02 1.6777742e-01 0.0000000e+00 
-5.3141199e-03 1.7230608e-01 0.0000000e+00 
-8.2357578e-03 1.7208800e-01 0.0000000e+00 
-1.1157576e-02 1.7187344e-01 0.0000000e+00 
-1.4080239e-02 1.7166232e-01 0.0000000e+00 
-5.5822327e-03 1.7621436e-01 0.0000000e+00 
-8.5168323e-03 1.7599448e-01 0.0000000e+00 
-1.1451614e-02 1.7577799e-01 0.0000000e+00 
-1.4387203e-02 1.7556477e-01 0.0000000e+00 
-5.8535644e-03 1.8013946e-01 0.0000000e+00 
-8.8006638e-03 1.7991786e-01 0.0000000e+00 
-1.1747925e-02 1.7969953e-01 0.0000000e+00 
-1.4695982e-02 1.7948439e-01 0.0000000e+00 
-6.1280527e-03 1.8408080e-01 0.0000000e+00 
-9.0871576e-03 1.8385752e-01 0.0000000e+00 
-1.2046427e-02 1.8363738e-01 0.0000000e+00 
-1.5006455e-02 1.8342027e-01 0.0000000e+00 
-6.4055574e-03 1.8803769e-01 0.0000000e+00 
-9.3762302e-03 1.8781281e-01 0.0000000e+00 
-1.2347047e-02 1.8759095e-01 0.0000000e+00 
-1.5318613e-02 1.8737205e-01 0.0000000e+00 
-6.6860196e-03 1.9200959e-01 0.0000000e+00 
-9.6677890e-03 1.9178315e-01 0.0000000e+00 
-1.2649706e-02 1.9155961e-01 0.0000000e+00 
-1.5632335e-02 1.9133887e-01 0.0000000e+00 
-6.9693015e-03 1.9599587e-01 0.0000000e+00 
-9.9617531e-03 1.9576794e-01 0.0000000e+00 
-1.2954333e-02 1.9554280e-01 0.0000000e+00 
-1.5947615e-02 1.9532039e-01 0.0000000e+00 
-7.2553475e-03 1.9999599e-01 0.0000000e+00 
-1.0258033e-02 1.9976661e-01 0.0000000e+00 
-1.3260850e-02 1.9953991e-01 0.0000000e+00 
-1.6264333e-02 1.9931578e-01 0.0000000e+00 
-7.5440225e-03 2.0400935e-01 0.0000000e+00 
-1.0556550e-02 2.0377860e-01 0.0000000e+00 
-1.3569189e-02 2.0355041e-01 0.0000000e+00 
-1.6582486e-02 2.0332473e-01 0.0000000e+00 
-7.8352745e-03 2.0803545e-01 0.0000000e+00 
-1.0857217e-02 2.0780336e-01 0.0000000e+00 
-1.3879277e-02 2.0757372e-01 0.0000000e+00 
-1.6901958e-02 2.0734646e-01 0.0000000e+00 
-8.1289711e-03 2.1207373e-01 0.0000000e+00 
-1.1159960e-02 2.1184036e-01 0.0000000e+00 
-1.4191046e-02 2.1160936e-01 0.0000000e+00 
-1.7222747e-02 2.1138065e-01 0.0000000e+00 
-8.4250649e-03 2.1612370e-01 0.0000000e+00 
-1.1464694e-02 2.1588910e-01 0.0000000e+00 
-1.4504427e-02 2.1565675e-01 0.0000000e+00 
-1.7544739e-02 2.1542658e-01 0.0000000e+00 
-8.7234271e-03 2.2018483e-01 0.0000000e+00 
-1.1771346e-02 2.1994906e-01 0.0000000e+00 
-1.4819354e-02 2.1971545e-01 0.0000000e+00 
-1.7867937e-02 2.1948395e-01 0.0000000e+00 
-9.0239940e-03 2.2425666e-01 0.0000000e+00 
-1.2079842e-02 2.2401976e-01 0.0000000e+00 
-1.5135777e-02 2.2378493e-01 0.0000000e+00 
-1.8192242e-02 2.2355211e-01 0.0000000e+00 
-9.3266734e-03 2.2833872e-01 0.0000000e+00 
-1.2390095e-02 2.2810073e-01 0.0000000e+00 
-1.5453607e-02 2.2786471e-01 0.0000000e+00 
-1.8517627e-02 2.2763060e-01 0.0000000e+00 
-9.6313503e-03 2.3243057e-01 0.0000000e+00 
-1.2702042e-02 2.3219154e-01 0.0000000e+00 
-1.5772808e-02 2.3195441e-01 0.0000000e+00 
-1.8844079e-02 2.3171913e-01 0.0000000e+00 
-9.9379903e-03 2.3653179e-01 0.0000000e+00 
-1.3015613e-02 2.3629176e-01 0.0000000e+00 
-1.6093317e-02 2.3605354e-01 0.0000000e+00 
-1.9171493e-02 2.3581706e-01 0.0000000e+00 
-1.0246475e-02 2.4064197e-01 0.0000000e+00 
-1.3330747e-02 2.4040099e-01 0.0000000e+00 
-1.6415080e-02 2.4016174e-01 0.0000000e+00 
-1.9499882e-02 2.3992419e-01 0.0000000e+00 
-1.0556774e-02 2.4476071e-01 0.0000000e+00 
-1.3647371e-02 2.4451881e-01 0.0000000e+00 
-1.6738040e-02 2.4427857e-01 0.0000000e+00 
-1.9829143e-02 2.4403991e-01 0.0000000e+00 
-1.0868770e-02 2.4888761e-01 0.0000000e+00 
-1.3965431e-02 2.4864484e-01 0.0000000e+00 
-1.7062144e-02 2.4840366e-01 0.0000000e+00 
-2.0159291e-02 2.4816402e-01 0.0000000e+00 
-1.1182437e-02 2.5302231e-01 0.0000000e+00 
-1.4284858e-02 2.5277871e-01 0.0000000e+00 
-1.7387341e-02 2.5253662e-01 0.0000000e+00 
-2.0490225e-02 2.5229596e-01 0.0000000e+00 
-1.1497662e-02 2.5716443e-01 0.0000000e+00 
-1.4605601e-02 2.5692004e-01 0.0000000e+00 
-1.7713581e-02 2.5667710e-01 0.0000000e+00 
-2.0821962e-02 2.5643555e-01 0.0000000e+00 
-1.1814423e-02 2.6131365e-01 0.0000000e+00 
-1.4927592e-02 2.6106850e-01 0.0000000e+00 
-1.8040815e-02 2.6082472e-01 0.0000000e+00 
-2.1154406e-02 2.6058224e-01 0.0000000e+00 
-1.2132609e-02 2.6546960e-01 0.0000000e+00 
-1.5250786e-02 2.6522373e-01 0.0000000e+00 
-1.8368996e-02 2.6497917e-01 0.0000000e+00 
-2.1487574e-02 2.6473588e-01 0.0000000e+00 
-1.2452203e-02 2.6963198e-01 0.0000000e+00 
-1.5575118e-02 2.6938542e-01 0.0000000e+00 
-1.8698078e-02 2.6914010e-01 0.0000000e+00 
-2.1821374e-02 2.6889596e-01 0.0000000e+00 
-1.2773098e-02 2.7380045e-01 0.0000000e+00 
-1.5900545e-02 2.7355324e-01 0.0000000e+00 
-1.9028017e-02 2.7330722e-01 0.0000000e+00 
-2.2155827e-02 2.7306234e-01 0.0000000e+00 
-1.3095281e-02 2.7797473e-01 0.0000000e+00 
-1.6227006e-02 2.7772690e-01 0.0000000e+00 
-1.9358770e-02 2.7748019e-01 0.0000000e+00 
-2.2490844e-02 2.7723454e-01 0.0000000e+00 
-1.3418648e-02 2.8215451e-01 0.0000000e+00 
-1.6554461e-02 2.8190609e-01 0.0000000e+00 
-1.9690298e-02 2.8165875e-01 0.0000000e+00 
-2.2826446e-02 2.8141243e-01 0.0000000e+00 
-1.3743172e-02 2.8633952e-01 0.0000000e+00 
-1.6882858e-02 2.8609054e-01 0.0000000e+00 
-2.0022571e-02 2.8584258e-01 0.0000000e+00 
-2.3162561e-02 2.8559560e-01 0.0000000e+00 
-1.4068789e-02 2.9052949e-01 0.0000000e+00 
-1.7212142e-02 2.9027997e-01 0.0000000e+00 
-2.0355531e-02 2.9003142e-01 0.0000000e+00 
-2.3499181e-02 2.8978377e-01 0.0000000e+00 
-1.4395415e-02 2.9472418e-01 0.0000000e+00 
-1.7542280e-02 2.9447416e-01 0.0000000e+00 
-2.0689164e-02 2.9422505e-01 0.0000000e+00 
-2.3836313e-02 2.9397684e-01 0.0000000e+00 
-1.4723046e-02 2.9892337e-01 0.0000000e+00 
-1.7873223e-02 2.9867286e-01 0.0000000e+00 
-2.1023432e-02 2.9842322e-01 0.0000000e+00 
-2.4173879e-02 2.9817440e-01 0.0000000e+00 
-1.5051592e-02 3.0312682e-01 0.0000000e+00 
-1.8204941e-02 3.0287585e-01 0.0000000e+00 
-2.1358305e-02 3.0262571e-01 0.0000000e+00 
-2.4511910e-02 3.0237638e-01 0.0000000e+00 
-1.5381054e-02 3.0733432e-01 0.0000000e+00 
-1.8537388e-02 3.0708291e-01 0.0000000e+00 
-2.1693751e-02 3.0683229e-01 0.0000000e+00 
-2.4850328e-02 3.0658240e-01 0.0000000e+00 
-1.5711341e-02 3.1154566e-01 0.0000000e+00 
-1.8870535e-02 3.1129384e-01 0.0000000e+00 
-2.2029741e-02 3.1104277e-01 0.0000000e+00 
-2.5189166e-02 3.1079243e-01 0.0000000e+00 
-1.6042461e-02 3.1576066e-01 0.0000000e+00 
-1.9204342e-02 3.1550844e-01 0.0000000e+00 
-2.2366248e-02 3.1525693e-01 0.0000000e+00 
-2.5528347e-02 3.1500608e-01 0.0000000e+00 
-1.6374326e-02 3.1997910e-01 0.0000000e+00 
-1.9538781e-02 3.1972652e-01 0.0000000e+00 
-2.2703245e-02 3.1947461e-01 0.0000000e+00 
-2.5867908e-02 3.1922335e-01 0.0000000e+00 
-1.6706944e-02 3.2420084e-01 0.0000000e+00 
-1.9873814e-02 3.2394789e-01 0.0000000e+00 
-2.3040707e-02 3.2369558e-01 0.0000000e+00 
-2.6207774e-02 3.2344387e-01 0.0000000e+00 
-1.7040232e-02 3.2842567e-01 0.0000000e+00 
-2.0209418e-02 3.2817240e-01 0.0000000e+00 
-2.3378609e-02 3.2791973e-01 0.0000000e+00 
-2.6547982e-02 3.2766765e-01 0.0000000e+00 
-1.7374203e-02 3.3265347e-01 0.0000000e+00 
-2.0545556e-02 3.3239987e-01 0.0000000e+00 
-2.3716930e-02 3.3214684e-01 0.0000000e+00 
-2.6888461e-02 3.3189434e-01 0.0000000e+00 
-1.7708775e-02 3.3688404e-01 0.0000000e+00 
-2.0882209e-02 3.3663014e-01 0.0000000e+00 
-2.4055647e-02 3.3637679e-01 0.0000000e+00 
-2.7229249e-02 3.3612397e-01 0.0000000e+00 
-1.8043964e-02 3.4111727e-01 0.0000000e+00 
-2.1219341e-02 3.4086308e-01 0.0000000e+00 
-2.4394739e-02 3.4060940e-01 0.0000000e+00 
-2.7570277e-02 3.4035621e-01 0.0000000e+00 
-1.8379693e-02 3.4535298e-01 0.0000000e+00 
-2.1556935e-02 3.4509853e-01 0.0000000e+00 
-2.4734186e-02 3.4484457e-01 0.0000000e+00 
-2.7911586e-02 3.4459108e-01 0.0000000e+00 
-1.8715961e-02 3.4959108e-01 0.0000000e+00 
-2.1894966e-02 3.4933637e-01 0.0000000e+00 
-2.5073981e-02 3.4908212e-01 0.0000000e+00 
-2.8253121e-02 3.4882833e-01 0.0000000e+00 
-1.9052736e-02 3.5383144e-01 0.0000000e+00 
-2.2233400e-02 3.5357647e-01 0.0000000e+00 