# vtk DataFile Version 4.0
vtk output
ASCII
DATASET UNSTRUCTURED_GRID
POINTS 604 float
5.5000000e+00 5.9700000e+00 0.0000000e+00 
5.5000000e+00 5.9900000e+00 0.0000000e+00 
5.5266667e+00 5.9700000e+00 0.0000000e+00 
5.5266667e+00 5.9900000e+00 0.0000000e+00 
5.5000000e+00 6.0100000e+00 0.0000000e+00 
5.5266667e+00 6.0100000e+00 0.0000000e+00 
5.5533333e+00 5.9700000e+00 0.0000000e+00 
5.5533333e+00 5.9900000e+00 0.0000000e+00 
5.5000000e+00 6.0300000e+00 0.0000000e+00 
5.5266667e+00 6.0300000e+00 0.0000000e+00 
5.5533333e+00 6.0100000e+00 0.0000000e+00 
5.5800000e+00 5.9700000e+00 0.0000000e+00 
5.5533333e+00 6.0300000e+00 0.0000000e+00 
5.5800000e+00 5.9900000e+00 0.0000000e+00 
5.5800000e+00 6.0100000e+00 0.0000000e+00 
5.5800000e+00 6.0300000e+00 0.0000000e+00 
5.6066667e+00 5.9700000e+00 0.0000000e+00 
5.6066667e+00 5.9900000e+00 0.0000000e+00 
5.6066667e+00 6.0100000e+00 0.0000000e+00 
5.6066667e+00 6.0300000e+00 0.0000000e+00 
5.6333333e+00 5.9700000e+00 0.0000000e+00 
5.6333333e+00 5.9900000e+00 0.0000000e+00 
5.6333333e+00 6.0100000e+00 0.0000000e+00 
5.6333333e+00 6.0300000e+00 0.0000000e+00 
5.6600000e+00 5.9700000e+00 0.0000000e+00 
5.6600000e+00 5.9900000e+00 0.0000000e+00 
5.6600000e+00 6.0100000e+00 0.0000000e+00 
5.6600000e+00 6.0300000e+00 0.0000000e+00 
5.6866667e+00 5.9700000e+00 0.0000000e+00 
5.6866667e+00 5.9900000e+00 0.0000000e+00 
5.6866667e+00 6.0100000e+00 0.0000000e+00 
5.6866667e+00 6.0300000e+00 0.0000000e+00 
5.7133333e+00 5.9700000e+00 0.0000000e+00 
5.7133333e+00 5.9900000e+00 0.0000000e+00 
5.7133333e+00 6.0100000e+00 0.0000000e+00 
5.7133333e+00 6.0300000e+00 0.0000000e+00 
5.7400000e+00 5.9700000e+00 0.0000000e+00 
5.7400000e+00 5.9900000e+00 0.0000000e+00 
5.7400000e+00 6.0100000e+00 0.0000000e+00 
5.7400000e+00 6.0300000e+00 0.0000000e+00 
5.7666667e+00 5.9700000e+00 0.0000000e+00 
5.7666667e+00 5.9900000e+00 0.0000000e+00 
5.7666667e+00 6.0100000e+00 0.0000000e+00 
5.7666667e+00 6.0300000e+00 0.0000000e+00 
5.7933333e+00 5.9700000e+00 0.0000000e+00 
5.7933333e+00 5.9900000e+00 0.0000000e+00 
5.7933333e+00 6.0100000e+00 0.0000000e+00 
5.7933333e+00 6.0300000e+00 0.0000000e+00 
5.8200000e+00 5.9700000e+00 0.0000000e+00 
5.8200000e+00 5.9900000e+00 0.0000000e+00 
5.8200000e+00 6.0100000e+00 0.0000000e+00 
5.8200000e+00 6.0300000e+00 0.0000000e+00 
5.8466667e+00 5.9700000e+00 0.0000000e+00 
5.8466667e+00 5.9900000e+00 0.0000000e+00 
5.8466667e+00 6.0100000e+00 0.0000000e+00 
5.8466667e+00 6.0300000e+00 0.0000000e+00 
5.8733333e+00 5.9700000e+00 0.0000000e+00 
5.8733333e+00 5.9900000e+00 0.0000000e+00 
5.8733333e+00 6.0100000e+00 0.0000000e+00 
5.8733333e+00 6.0300000e+00 0.0000000e+00 
5.9000000e+00 5.9700000e+00 0.0000000e+00 
5.9000000e+00 5.9900000e+00 0.0000000e+00 
5.9000000e+00 6.0100000e+00 0.0000000e+00 
5.9000000e+00 6.0300000e+00 0.0000000e+00 
5.9266667e+00 5.9700000e+00 0.0000000e+00 
5.9266667e+00 5.9900000e+00 0.0000000e+00 
5.9266667e+00 6.0100000e+00 0.0000000e+00 
5.9266667e+00 6.0300000e+00 0.0000000e+00 
5.9533333e+00 5.9700000e+00 0.0000000e+00 
5.9533333e+00 5.9900000e+00 0.0000000e+00 
5.9533333e+00 6.0100000e+00 0.0000000e+00 
5.9533333e+00 6.0300000e+00 0.0000000e+00 
5.9800000e+00 5.9700000e+00 0.0000000e+00 
5.9800000e+00 5.9900000e+00 0.0000000e+00 
5.9800000e+00 6.0100000e+00 0.0000000e+00 
5.9800000e+00 6.0300000e+00 0.0000000e+00 
6.0066667e+00 5.9700000e+00 0.0000000e+00 
6.0066667e+00 5.9900000e+00 0.0000000e+00 
6.0066667e+00 6.0100000e+00 0.0000000e+00 
6.0066667e+00 6.0300000e+00 0.0000000e+00 
6.0333333e+00 5.9700000e+00 0.0000000e+00 
6.0333333e+00 5.9900000e+00 0.0000000e+00 
6.0333333e+00 6.0100000e+00 0.0000000e+00 
6.0333333e+00 6.0300000e+00 0.0000000e+00 
6.0600000e+00 5.9700000e+00 0.0000000e+00 
6.0600000e+00 5.9900000e+00 0.0000000e+00 
6.0600000e+00 6.0100000e+00 0.0000000e+00 
6.0600000e+00 6.0300000e+00 0.0000000e+00 
6.0866667e+00 5.9700000e+00 0.0000000e+00 
6.0866667e+00 5.9900000e+00 0.0000000e+00 
6.0866667e+00 6.0100000e+00 0.0000000e+00 
6.0866667e+00 6.0300000e+00 0.0000000e+00 
6.1133333e+00 5.9700000e+00 0.0000000e+00 
6.1133333e+00 5.9900000e+00 0.0000000e+00 
6.1133333e+00 6.0100000e+00 0.0000000e+00 
6.1133333e+00 6.0300000e+00 0.0000000e+00 
6.1400000e+00 5.9700000e+00 0.0000000e+00 
6.1400000e+00 5.9900000e+00 0.0000000e+00 
6.1400000e+00 6.0100000e+00 0.0000000e+00 
6.1400000e+00 6.0300000e+00 0.0000000e+00 
6.1666667e+00 5.9700000e+00 0.0000000e+00 
6.1666667e+00 5.9900000e+00 0.0000000e+00 
6.1666667e+00 6.0100000e+00 0.0000000e+00 
6.1666667e+00 6.0300000e+00 0.0000000e+00 
6.1933333e+00 5.9700000e+00 0.0000000e+00 
6.1933333e+00 5.9900000e+00 0.0000000e+00 
6.1933333e+00 6.0100000e+00 0.0000000e+00 
6.1933333e+00 6.0300000e+00 0.0000000e+00 
6.2200000e+00 5.9700000e+00 0.0000000e+00 
6.2200000e+00 5.9900000e+00 0.0000000e+00 
6.2200000e+00 6.0100000e+00 0.0000000e+00 
6.2200000e+00 6.0300000e+00 0.0000000e+00 
6.2466667e+00 5.9700000e+00 0.0000000e+00 
6.2466667e+00 5.9900000e+00 0.0000000e+00 
6.2466667e+00 6.0100000e+00 0.0000000e+00 
6.2466667e+00 6.0300000e+00 0.0000000e+00 
6.2733333e+00 5.9700000e+00 0.0000000e+00 
6.2733333e+00 5.9900000e+00 0.0000000e+00 
6.2733333e+00 6.0100000e+00 0.0000000e+00 
6.2733333e+00 6.0300000e+00 0.0000000e+00 
6.3000000e+00 5.9700000e+00 0.0000000e+00 
6.3000000e+00 5.9900000e+00 0.0000000e+00 
6.3000000e+00 6.0100000e+00 0.0000000e+00 
6.3000000e+00 6.0300000e+00 0.0000000e+00 
6.3266667e+00 5.9700000e+00 0.0000000e+00 
6.3266667e+00 5.9900000e+00 0.0000000e+00 
6.3266667e+00 6.0100000e+00 0.0000000e+00 
6.3266667e+00 6.0300000e+00 0.0000000e+00 
6.3533333e+00 5.9700000e+00 0.0000000e+00 
6.3533333e+00 5.9900000e+00 0.0000000e+00 
6.3533333e+00 6.0100000e+00 0.0000000e+00 
6.3533333e+00 6.0300000e+00 0.0000000e+00 
6.3800000e+00 5.9700000e+00 0.0000000e+00 
6.3800000e+00 5.9900000e+00 0.0000000e+00 
6.3800000e+00 6.0100000e+00 0.0000000e+00 
6.3800000e+00 6.0300000e+00 0.0000000e+00 
6.4066667e+00 5.9700000e+00 0.0000000e+00 
6.4066667e+00 5.9900000e+00 0.0000000e+00 
6.4066667e+00 6.0100000e+00 0.0000000e+00 
6.4066667e+00 6.0300000e+00 0.0000000e+00 
6.4333333e+00 5.9700000e+00 0.0000000e+00 
6.4333333e+00 5.9900000e+00 0.0000000e+00 
6.4333333e+00 6.0100000e+00 0.0000000e+00 
6.4333333e+00 6.0300000e+00 0.0000000e+00 
6.4600000e+00 5.9700000e+00 0.0000000e+00 
6.4600000e+00 5.9900000e+00 0.0000000e+00 
6.4600000e+00 6.0100000e+00 0.0000000e+00 
6.4600000e+00 6.0300000e+00 0.0000000e+00 
6.4866667e+00 5.9700000e+00 0.0000000e+00 
6.4866667e+00 5.9900000e+00 0.0000000e+00 
6.4866667e+00 6.0100000e+00 0.0000000e+00 
6.4866667e+00 6.0300000e+00 0.0000000e+00 
6.5133333e+00 5.9700000e+00 0.0000000e+00 
6.5133333e+00 5.9900000e+00 0.0000000e+00 
6.5133333e+00 6.0100000e+00 0.0000000e+00 
6.5133333e+00 6.0300000e+00 0.0000000e+00 
6.5400000e+00 5.9700000e+00 0.0000000e+00 
6.5400000e+00 5.9900000e+00 0.0000000e+00 
6.5400000e+00 6.0100000e+00 0.0000000e+00 
6.5400000e+00 6.0300000e+00 0.0000000e+00 
6.5666667e+00 5.9700000e+00 0.0000000e+00 
6.5666667e+00 5.9900000e+00 0.0000000e+00 
6.5666667e+00 6.0100000e+00 0.0000000e+00 
6.5666667e+00 6.0300000e+00 0.0000000e+00 
6.5933333e+00 5.9700000e+00 0.0000000e+00 
6.5933333e+00 5.9900000e+00 0.0000000e+00 
6.5933333e+00 6.0100000e+00 0.0000000e+00 
6.5933333e+00 6.0300000e+00 0.0000000e+00 
6.6200000e+00 5.9700000e+00 0.0000000e+00 
6.6200000e+00 5.9900000e+00 0.0000000e+00 
6.6200000e+00 6.0100000e+00 0.0000000e+00 
6.6200000e+00 6.0300000e+00 0.0000000e+00 
6.6466667e+00 5.9700000e+00 0.0000000e+00 
6.6466667e+00 5.9900000e+00 0.0000000e+00 
6.6466667e+00 6.0100000e+00 0.0000000e+00 
6.6466667e+00 6.0300000e+00 0.0000000e+00 
6.6733333e+00 5.9700000e+00 0.0000000e+00 
6.6733333e+00 5.9900000e+00 0.0000000e+00 
6.6733333e+00 6.0100000e+00 0.0000000e+00 
6.6733333e+00 6.0300000e+00 0.0000000e+00 
6.7000000e+00 5.9700000e+00 0.0000000e+00 
6.7000000e+00 5.9900000e+00 0.0000000e+00 
6.7000000e+00 6.0100000e+00 0.0000000e+00 
6.7000000e+00 6.0300000e+00 0.0000000e+00 
6.7266667e+00 5.9700000e+00 0.0000000e+00 
6.7266667e+00 5.9900000e+00 0.0000000e+00 
6.7266667e+00 6.0100000e+00 0.0000000e+00 
6.7266667e+00 6.0300000e+00 0.0000000e+00 
6.7533333e+00 5.9700000e+00 0.0000000e+00 
6.7533333e+00 5.9900000e+00 0.0000000e+00 
6.7533333e+00 6.0100000e+00 0.0000000e+00 
6.7533333e+00 6.0300000e+00 0.0000000e+00 
6.7800000e+00 5.9700000e+00 0.0000000e+00 
6.7800000e+00 5.9900000e+00 0.0000000e+00 
6.7800000e+00 6.0100000e+00 0.0000000e+00 
6.7800000e+00 6.0300000e+00 0.0000000e+00 
6.8066667e+00 5.9700000e+00 0.0000000e+00 
6.8066667e+00 5.9900000e+00 0.0000000e+00 
6.8066667e+00 6.0100000e+00 0.0000000e+00 
6.8066667e+00 6.0300000e+00 0.0000000e+00 
6.8333333e+00 5.9700000e+00 0.0000000e+00 
6.8333333e+00 5.9900000e+00 0.0000000e+00 
6.8333333e+00 6.0100000e+00 0.0000000e+00 
6.8333333e+00 6.0300000e+00 0.0000000e+00 
6.8600000e+00 5.9700000e+00 0.0000000e+00 
6.8600000e+00 5.9900000e+00 0.0000000e+00 
6.8600000e+00 6.0100000e+00 0.0000000e+00 
6.8600000e+00 6.0300000e+00 0.0000000e+00 
6.8866667e+00 5.9700000e+00 0.0000000e+00 
6.8866667e+00 5.9900000e+00 0.0000000e+00 
6.8866667e+00 6.0100000e+00 0.0000000e+00 
6.8866667e+00 6.0300000e+00 0.0000000e+00 
6.9133333e+00 5.9700000e+00 0.0000000e+00 
6.9133333e+00 5.9900000e+00 0.0000000e+00 
6.9133333e+00 6.0100000e+00 0.0000000e+00 
6.9133333e+00 6.0300000e+00 0.0000000e+00 
6.9400000e+00 5.9700000e+00 0.0000000e+00 
6.9400000e+00 5.9900000e+00 0.0000000e+00 
6.9400000e+00 6.0100000e+00 0.0000000e+00 
6.9400000e+00 6.0300000e+00 0.0000000e+00 
6.9666667e+00 5.9700000e+00 0.0000000e+00 
6.9666667e+00 5.9900000e+00 0.0000000e+00 
6.9666667e+00 6.0100000e+00 0.0000000e+00 
6.9666667e+00 6.0300000e+00 0.0000000e+00 
6.9933333e+00 5.9700000e+00 0.0000000e+00 
6.9933333e+00 5.9900000e+00 0.0000000e+00 
6.9933333e+00 6.0100000e+00 0.0000000e+00 
6.9933333e+00 6.0300000e+00 0.0000000e+00 
7.0200000e+00 5.9700000e+00 0.0000000e+00 
7.0200000e+00 5.9900000e+00 0.0000000e+00 
[...]
POINT_DATA 604
FIELD FieldData 2
DISPLACEMENT 3 604  float
0.0000000e+00 0.0000000e+00 0.0000000e+00 
0.0000000e+00 0.0000000e+00 0.0000000e+00 
-4.1270059e-07 -2.4994278e-07 0.0000000e+00 
-1.3477766e-07 -1.6192459e-07 0.0000000e+00 
0.0000000e+00 0.0000000e+00 0.0000000e+00 
1.2607493e-07 -1.6204699e-07 0.0000000e+00 
-8.3230927e-07 -7.8321271e-07 0.0000000e+00 
-2.8084983e-07 -7.2221364e-07 0.0000000e+00 
0.0000000e+00 0.0000000e+00 0.0000000e+00 
4.0876058e-07 -2.4644031e-07 0.0000000e+00 
2.7047254e-07 -7.2896166e-07 0.0000000e+00 
-1.2445998e-06 -1.7246872e-06 0.0000000e+00 
8.2276222e-07 -8.0985158e-07 0.0000000e+00 
-4.1800506e-07 -1.6508494e-06 0.0000000e+00 
4.0491529e-07 -1.6522269e-06 0.0000000e+00 
1.2312693e-06 -1.7209533e-06 0.0000000e+00 
-1.6489765e-06 -2.9963904e-06 0.0000000e+00 
-5.5402343e-07 -2.9364762e-06 0.0000000e+00 
5.3768414e-07 -2.9425092e-06 0.0000000e+00 
1.6324969e-06 -3.0223452e-06 0.0000000e+00 
-2.0458431e-06 -4.6528466e-06 0.0000000e+00 
-6.8778085e-07 -4.5818320e-06 0.0000000e+00 
6.6762256e-07 -4.5824409e-06 0.0000000e+00 
2.0267475e-06 -4.6485867e-06 0.0000000e+00 
-2.4345757e-06 -6.6274285e-06 0.0000000e+00 
-8.1960677e-07 -6.5691767e-06 0.0000000e+00 
7.9468401e-07 -6.5771186e-06 0.0000000e+00 
2.4146512e-06 -6.6535704e-06 0.0000000e+00 
-2.8184022e-06 -8.9591859e-06 0.0000000e+00 
-9.4453992e-07 -8.9020724e-06 0.0000000e+00 
9.2387649e-07 -8.9100075e-06 0.0000000e+00 
2.7930845e-06 -8.9850990e-06 0.0000000e+00 
-3.1932312e-06 -1.1641368e-05 0.0000000e+00 
-1.0717680e-06 -1.1574163e-05 0.0000000e+00 
1.0460117e-06 -1.1574757e-05 0.0000000e+00 
3.1663190e-06 -1.1637209e-05 0.0000000e+00 
-3.5617542e-06 -1.4623166e-05 0.0000000e+00 
-1.1964168e-06 -1.4569246e-05 0.0000000e+00 
1.1660334e-06 -1.4575137e-05 0.0000000e+00 
3.5317650e-06 -1.4648503e-05 0.0000000e+00 
-3.9240376e-06 -1.7957150e-05 0.0000000e+00 
-1.3185175e-06 -1.7892254e-05 0.0000000e+00 
1.2839394e-06 -1.7893621e-05 0.0000000e+00 
3.8894539e-06 -1.7953481e-05 0.0000000e+00 
-4.2792285e-06 -2.1579112e-05 0.0000000e+00 
-1.4384614e-06 -2.1527622e-05 0.0000000e+00 
1.3993679e-06 -2.1533479e-05 0.0000000e+00 
4.2403411e-06 -2.1604413e-05 0.0000000e+00 
-4.6278228e-06 -2.5540572e-05 0.0000000e+00 
-1.5561702e-06 -2.5478135e-05 0.0000000e+00 
1.5124360e-06 -2.5479513e-05 0.0000000e+00 
4.5840268e-06 -2.5537004e-05 0.0000000e+00 
-4.9694911e-06 -2.9777990e-05 0.0000000e+00 
-1.6717587e-06 -2.9728801e-05 0.0000000e+00 
1.6230570e-06 -2.9734604e-05 0.0000000e+00 
4.9209480e-06 -2.9803048e-05 0.0000000e+00 
-5.3046361e-06 -3.4342352e-05 0.0000000e+00 
-1.7851380e-06 -3.4282366e-05 0.0000000e+00 
1.7313606e-06 -3.4283770e-05 0.0000000e+00 
5.2507989e-06 -3.4338954e-05 0.0000000e+00 
-5.6329980e-06 -3.9170961e-05 0.0000000e+00 
-1.8964104e-06 -3.9124066e-05 0.0000000e+00 
1.8372721e-06 -3.9129849e-05 0.0000000e+00 
5.5739499e-06 -3.9195868e-05 0.0000000e+00 
-5.9548698e-06 -4.4314182e-05 0.0000000e+00 
-2.0055088e-06 -4.4256621e-05 0.0000000e+00 
1.9409013e-06 -4.4258069e-05 0.0000000e+00 
5.8902061e-06 -4.4310995e-05 0.0000000e+00 
-6.2701130e-06 -4.9710060e-05 0.0000000e+00 
-2.1125044e-06 -4.9665462e-05 0.0000000e+00 
2.0422033e-06 -4.9671262e-05 0.0000000e+00 
6.1998178e-06 -4.9734931e-05 0.0000000e+00 
-6.5788960e-06 -5.5408469e-05 0.0000000e+00 
-2.2173497e-06 -5.5353321e-05 0.0000000e+00 
2.1412694e-06 -5.5354834e-05 0.0000000e+00 
6.5027153e-06 -5.5405563e-05 0.0000000e+00 
-6.8812467e-06 -6.1348190e-05 0.0000000e+00 
-2.3200978e-06 -6.1305803e-05 0.0000000e+00 
2.2380713e-06 -6.1311626e-05 0.0000000e+00 
6.7989780e-06 -6.1372930e-05 0.0000000e+00 
-7.1767277e-06 -6.7578592e-05 0.0000000e+00 
-2.4209809e-06 -6.7525994e-05 0.0000000e+00 
2.3324212e-06 -6.7526880e-05 0.0000000e+00 
7.0891426e-06 -6.7575622e-05 0.0000000e+00 
-7.4651113e-06 -7.4038518e-05 0.0000000e+00 
-2.5201083e-06 -7.3997686e-05 0.0000000e+00 
2.4242243e-06 -7.4005430e-05 0.0000000e+00 
7.3735353e-06 -7.4063770e-05 0.0000000e+00 
-7.7490665e-06 -8.0764085e-05 0.0000000e+00 
-2.6128839e-06 -8.0724427e-05 0.0000000e+00 
2.5181574e-06 -8.0732199e-05 0.0000000e+00 
7.6495851e-06 -8.0789490e-05 0.0000000e+00 
-8.0246333e-06 -8.7749628e-05 0.0000000e+00 
-2.7078297e-06 -8.7700534e-05 0.0000000e+00 
2.6056932e-06 -8.7701599e-05 0.0000000e+00 
7.9214408e-06 -8.7747190e-05 0.0000000e+00 
-8.2949489e-06 -9.4947799e-05 0.0000000e+00 
-2.8002998e-06 -9.4911257e-05 0.0000000e+00 
2.6915440e-06 -9.4917373e-05 0.0000000e+00 
8.1860461e-06 -9.4973419e-05 0.0000000e+00 
-8.5592408e-06 -1.0240849e-04 0.0000000e+00 
-2.8904983e-06 -1.0236152e-04 0.0000000e+00 
2.7755350e-06 -1.0236343e-04 0.0000000e+00 
8.4442851e-06 -1.0240680e-04 0.0000000e+00 
-8.8175736e-06 -1.1007105e-04 0.0000000e+00 
-2.9785815e-06 -1.1003695e-04 0.0000000e+00 
2.8575341e-06 -1.1004327e-04 0.0000000e+00 
8.6961586e-06 -1.1009745e-04 0.0000000e+00 
-9.0694920e-06 -1.1798540e-04 0.0000000e+00 
-3.0646733e-06 -1.1794068e-04 0.0000000e+00 
2.9374527e-06 -1.1794275e-04 0.0000000e+00 
8.9422356e-06 -1.1798409e-04 0.0000000e+00 
-9.3156104e-06 -1.2609041e-04 0.0000000e+00 
-3.1486605e-06 -1.2605867e-04 0.0000000e+00 
3.0154272e-06 -1.2606517e-04 0.0000000e+00 
9.1819607e-06 -1.2611746e-04 0.0000000e+00 
-9.5553599e-06 -1.3443668e-04 0.0000000e+00 
-3.2306732e-06 -1.3439420e-04 0.0000000e+00 
3.0913622e-06 -1.3439643e-04 0.0000000e+00 
9.4160197e-06 -1.3443579e-04 0.0000000e+00 
-9.7894233e-06 -1.4296263e-04 0.0000000e+00 
-3.3105880e-06 -1.4293324e-04 0.0000000e+00 
3.1654042e-06 -1.4293995e-04 0.0000000e+00 
9.6437853e-06 -1.4299040e-04 0.0000000e+00 
-1.0017158e-05 -1.5171950e-04 0.0000000e+00 
-3.3885554e-06 -1.5167922e-04 0.0000000e+00 
3.2374377e-06 -1.5168162e-04 0.0000000e+00 
9.8660177e-06 -1.5171904e-04 0.0000000e+00 
-1.0239316e-05 -1.6064517e-04 0.0000000e+00 
-3.4644347e-06 -1.6061811e-04 0.0000000e+00 
3.3076255e-06 -1.6062506e-04 0.0000000e+00 
1.0082021e-05 -1.6067372e-04 0.0000000e+00 
-1.0455209e-05 -1.6979161e-04 0.0000000e+00 
-3.5383832e-06 -1.6975353e-04 0.0000000e+00 
3.3758462e-06 -1.6975611e-04 0.0000000e+00 
1.0292600e-05 -1.6979162e-04 0.0000000e+00 
-1.0665668e-05 -1.7909625e-04 0.0000000e+00 
-3.6102667e-06 -1.7907140e-04 0.0000000e+00 
3.4422552e-06 -1.7907856e-04 0.0000000e+00 
1.0496978e-05 -1.7912536e-04 0.0000000e+00 
-1.0869467e-05 -1.8861163e-04 0.0000000e+00 
-3.6805214e-06 -1.8857589e-04 0.0000000e+00 
3.5064537e-06 -1.8857788e-04 0.0000000e+00 
1.0696500e-05 -1.8861170e-04 0.0000000e+00 
-1.1067058e-05 -1.9827414e-04 0.0000000e+00 
-3.7490904e-06 -1.9825076e-04 0.0000000e+00 
3.5685098e-06 -1.9826019e-04 0.0000000e+00 
1.0890767e-05 -1.9830444e-04 0.0000000e+00 
-1.1260756e-05 -2.0812299e-04 0.0000000e+00 
-3.8111323e-06 -2.0810086e-04 0.0000000e+00 
3.6333423e-06 -2.0811035e-04 0.0000000e+00 
1.1077576e-05 -2.0815389e-04 0.0000000e+00 
-1.1446385e-05 -2.1815370e-04 0.0000000e+00 
-3.8758061e-06 -2.1812112e-04 0.0000000e+00 
3.6917848e-06 -2.1812344e-04 0.0000000e+00 
1.1261280e-05 -2.1815450e-04 0.0000000e+00 
-1.1627679e-05 -2.2831572e-04 0.0000000e+00 
-3.9380670e-06 -2.2829667e-04 0.0000000e+00 
3.7489442e-06 -2.2830454e-04 0.0000000e+00 
1.1438203e-05 -2.2834728e-04 0.0000000e+00 
-1.1803410e-05 -2.3866470e-04 0.0000000e+00 
-3.9982558e-06 -2.3863399e-04 0.0000000e+00 
3.8045094e-06 -2.3863725e-04 0.0000000e+00 
1.1609700e-05 -2.3866633e-04 0.0000000e+00 
-1.1973980e-05 -2.4913515e-04 0.0000000e+00 
-4.0564568e-06 -2.4911843e-04 0.0000000e+00 
3.8584178e-06 -2.4912658e-04 0.0000000e+00 
1.1775416e-05 -2.4916783e-04 0.0000000e+00 
-1.2138635e-05 -2.5978335e-04 0.0000000e+00 
-4.1128835e-06 -2.5975465e-04 0.0000000e+00 
3.9104927e-06 -2.5975809e-04 0.0000000e+00 
1.1936232e-05 -2.5978537e-04 0.0000000e+00 
-1.2298254e-05 -2.7054280e-04 0.0000000e+00 
-4.1673579e-06 -2.7052828e-04 0.0000000e+00 
3.9609339e-06 -2.7053666e-04 0.0000000e+00 
1.2091315e-05 -2.7057634e-04 0.0000000e+00 
-1.2452068e-05 -2.8147091e-04 0.0000000e+00 
-4.2200760e-06 -2.8144418e-04 0.0000000e+00 
4.0095827e-06 -2.8144780e-04 0.0000000e+00 
1.2241567e-05 -2.8147334e-04 0.0000000e+00 
-1.2600929e-05 -2.9250034e-04 0.0000000e+00 
-4.2708726e-06 -2.9248796e-04 0.0000000e+00 
4.0566283e-06 -2.9249659e-04 0.0000000e+00 
1.2386184e-05 -2.9253473e-04 0.0000000e+00 
-1.2744089e-05 -3.0368948e-04 0.0000000e+00 
-4.3199434e-06 -3.0366470e-04 0.0000000e+00 
4.1019133e-06 -3.0366849e-04 0.0000000e+00 
1.2526056e-05 -3.0369230e-04 0.0000000e+00 
-1.2882383e-05 -3.1497020e-04 0.0000000e+00 
-4.3671265e-06 -3.1495992e-04 0.0000000e+00 
4.1456260e-06 -3.1496880e-04 0.0000000e+00 
1.2660397e-05 -3.1500542e-04 0.0000000e+00 
-1.3015105e-05 -3.2640181e-04 0.0000000e+00 
-4.4126046e-06 -3.2637895e-04 0.0000000e+00 
4.1876242e-06 -3.2638291e-04 0.0000000e+00 
1.2790064e-05 -3.2640505e-04 0.0000000e+00 
-1.3143100e-05 -3.3791563e-04 0.0000000e+00 
-4.4562430e-06 -3.3790729e-04 0.0000000e+00 
4.2280712e-06 -3.3791636e-04 0.0000000e+00 
1.2914270e-05 -3.3795137e-04 0.0000000e+00 
-1.3265142e-05 -3.4957164e-04 0.0000000e+00 
-4.4985184e-06 -3.4955085e-04 0.0000000e+00 
4.2665357e-06 -3.4955411e-04 0.0000000e+00 
1.3034400e-05 -3.4957481e-04 0.0000000e+00 
-1.3381577e-05 -3.6130002e-04 0.0000000e+00 
-4.5394042e-06 -3.6129276e-04 0.0000000e+00 
4.3030607e-06 -3.6130429e-04 0.0000000e+00 
1.3150173e-05 -3.6133689e-04 0.0000000e+00 
-1.3495170e-05 -3.7314585e-04 0.0000000e+00 
-4.5734973e-06 -3.7313967e-04 0.0000000e+00 
4.3431619e-06 -3.7315125e-04 0.0000000e+00 
1.3258987e-05 -3.7318324e-04 0.0000000e+00 
-1.3601324e-05 -3.8510532e-04 0.0000000e+00 
-4.6110220e-06 -3.8508722e-04 0.0000000e+00 
4.3766026e-06 -3.8509074e-04 0.0000000e+00 
1.3365702e-05 -3.8510903e-04 0.0000000e+00 
-1.3704003e-05 -3.9712351e-04 0.0000000e+00 
-4.6463945e-06 -3.9712014e-04 0.0000000e+00 
4.4090656e-06 -3.9712980e-04 0.0000000e+00 
1.3466459e-05 -3.9716134e-04 0.0000000e+00 
-1.3802140e-05 -4.0926354e-04 0.0000000e+00 
-4.6799438e-06 -4.0924695e-04 0.0000000e+00 
4.4402673e-06 -4.0925146e-04 0.0000000e+00 
1.3562514e-05 -4.0926801e-04 0.0000000e+00 
-1.3895924e-05 -4.2145414e-04 0.0000000e+00 
-4.7118315e-06 -4.2145272e-04 0.0000000e+00 
4.4700864e-06 -4.2146260e-04 0.0000000e+00 
1.3653782e-05 -4.2149290e-04 0.0000000e+00 
-1.3984832e-05 -4.3375889e-04 0.0000000e+00 
-4.7422460e-06 -4.3374393e-04 0.0000000e+00 
4.4983949e-06 -4.3374856e-04 0.0000000e+00 
1.3740975e-05 -4.3376361e-04 0.0000000e+00 
-1.4069581e-05 -4.4610571e-04 0.0000000e+00 
-4.7710589e-06 -4.4610606e-04 0.0000000e+00 
4.5253620e-06 -4.4611611e-04 0.0000000e+00 
1.3823496e-05 -4.4614510e-04 0.0000000e+00 
-1.4149632e-05 -4.5855920e-04 0.0000000e+00 
-4.7984380e-06 -4.5854583e-04 0.0000000e+00 
4.5508853e-06 -4.5855059e-04 0.0000000e+00 
1.3902078e-05 -4.5856419e-04 0.0000000e+00 
-1.4225681e-05 -4.7104674e-04 0.0000000e+00 
-4.8242676e-06 -4.7104879e-04 0.0000000e+00 
4.5751217e-06 -4.7105901e-04 0.0000000e+00 
1.3976157e-05 -4.7108674e-04 0.0000000e+00 
-1.4297199e-05 -4.8363372e-04 0.0000000e+00 
-4.8487171e-06 -4.8362188e-04 0.0000000e+00 
4.5979718e-06 -4.8362675e-04 0.0000000e+00 
1.4046457e-05 -4.8363897e-04 0.0000000e+00 
-1.4364880e-05 -4.9624702e-04 0.0000000e+00 
-4.8716696e-06 -4.9625070e-04 0.0000000e+00 
4.6195930e-06 -4.9626110e-04 0.0000000e+00 
1.4112430e-05 -4.9628761e-04 0.0000000e+00 
-1.4428216e-05 -5.0895283e-04 0.0000000e+00 
-4.8932847e-06 -5.0894247e-04 0.0000000e+00 
4.6399001e-06 -5.0894745e-04 0.0000000e+00 
1.4174774e-05 -5.0895836e-04 0.0000000e+00 
-1.4487936e-05 -5.2167771e-04 0.0000000e+00 
-4.9134669e-06 -5.2168283e-04 0.0000000e+00 
4.6590270e-06 -5.2169336e-04 0.0000000e+00 
1.4232918e-05 -5.2171858e-04 0.0000000e+00 
-1.4542932e-05 -5.3448842e-04 0.0000000e+00 
-4.9327011e-06 -5.3447968e-04 0.0000000e+00 
4.6765690e-06 -5.3448384e-04 0.0000000e+00 
1.4288154e-05 -5.3449370e-04 0.0000000e+00 
-1.4593416e-05 -5.4731054e-04 0.0000000e+00 
-4.9510014e-06 -5.4731617e-04 0.0000000e+00 
4.6925286e-06 -5.4732927e-04 0.0000000e+00 
1.4340435e-05 -5.4735236e-04 0.0000000e+00 
-1.4642553e-05 -5.6019451e-04 0.0000000e+00 
-4.9624897e-06 -5.6020098e-04 0.0000000e+00 
4.7129428e-06 -5.6021412e-04 0.0000000e+00 
1.4386767e-05 -5.6023679e-04 0.0000000e+00 
-1.4685364e-05 -5.7313768e-04 0.0000000e+00 
-4.9782714e-06 -5.7313090e-04 0.0000000e+00 
4.7266878e-06 -5.7313525e-04 0.0000000e+00 
1.4432486e-05 -5.7314332e-04 0.0000000e+00 
-1.4726059e-05 -5.8608205e-04 0.0000000e+00 
-4.9922982e-06 -5.8609091e-04 0.0000000e+00 
4.7399358e-06 -5.8610190e-04 0.0000000e+00 
1.4473558e-05 -5.8612461e-04 0.0000000e+00 
-1.4763603e-05 -5.9909759e-04 0.0000000e+00 
-5.0049078e-06 -5.9909178e-04 0.0000000e+00 
4.7524123e-06 -5.9909715e-04 0.0000000e+00 
1.4511186e-05 -5.9910389e-04 0.0000000e+00 
-1.4798091e-05 -6.1210855e-04 0.0000000e+00 
-5.0162839e-06 -6.1211888e-04 0.0000000e+00 
4.7639625e-06 -6.1213005e-04 0.0000000e+00 
1.4545427e-05 -6.1215198e-04 0.0000000e+00 
-1.4829048e-05 -6.2518544e-04 0.0000000e+00 
-5.0266223e-06 -6.2518074e-04 0.0000000e+00 
4.7744662e-06 -6.2518621e-04 0.0000000e+00 
1.4576914e-05 -6.2519187e-04 0.0000000e+00 
-1.4857145e-05 -6.3825156e-04 0.0000000e+00 
-5.0357831e-06 -6.3826318e-04 0.0000000e+00 
4.7840878e-06 -6.3827451e-04 0.0000000e+00 
1.4605117e-05 -6.3829558e-04 0.0000000e+00 
-1.4881879e-05 -6.5137860e-04 0.0000000e+00 
-5.0439419e-06 -6.5137499e-04 0.0000000e+00 
4.7927245e-06 -6.5138055e-04 0.0000000e+00 
1.4630693e-05 -6.5138519e-04 0.0000000e+00 
-1.4903887e-05 -6.6448911e-04 0.0000000e+00 
-5.0509675e-06 -6.6450198e-04 0.0000000e+00 
4.8005297e-06 -6.6451346e-04 0.0000000e+00 
1.4653132e-05 -6.6453373e-04 0.0000000e+00 
-1.4922678e-05 -6.7765579e-04 0.0000000e+00 
-5.0570376e-06 -6.7765321e-04 0.0000000e+00 
4.8073952e-06 -6.7765886e-04 0.0000000e+00 
1.4673076e-05 -6.7766252e-04 0.0000000e+00 
-1.4938866e-05 -6.9080039e-04 0.0000000e+00 
-5.0620182e-06 -6.9081446e-04 0.0000000e+00 
4.8134756e-06 -6.9082611e-04 0.0000000e+00 
1.4690026e-05 -6.9084561e-04 0.0000000e+00 
-1.4952003e-05 -7.0399666e-04 0.0000000e+00 
-5.0660737e-06 -7.0399507e-04 0.0000000e+00 
4.8186731e-06 -7.0400080e-04 0.0000000e+00 
1.4704580e-05 -7.0400355e-04 0.0000000e+00 
-1.4962709e-05 -7.1716573e-04 0.0000000e+00 
-5.0690960e-06 -7.1718080e-04 0.0000000e+00 
4.8231155e-06 -7.1719257e-04 0.0000000e+00 
1.4716225e-05 -7.1721121e-04 0.0000000e+00 
-1.4969908e-05 -7.3038211e-04 0.0000000e+00 
-5.0716023e-06 -7.3038170e-04 0.0000000e+00 
4.8263520e-06 -7.3038648e-04 0.0000000e+00 
1.4726182e-05 -7.3038859e-04 0.0000000e+00 
-1.4973604e-05 -7.4356562e-04 0.0000000e+00 
-5.0736204e-06 -7.4358069e-04 0.0000000e+00 
4.8283572e-06 -7.4359525e-04 0.0000000e+00 
1.4734554e-05 -7.4361209e-04 0.0000000e+00 
-1.4977423e-05 -7.5677294e-04 0.0000000e+00 
-5.0686750e-06 -7.5678865e-04 0.0000000e+00 
4.8357411e-06 -7.5680327e-04 0.0000000e+00 
1.4737849e-05 -7.5681992e-04 0.0000000e+00 
-1.4975890e-05 -7.7000262e-04 0.0000000e+00 
-5.0689577e-06 -7.7000346e-04 0.0000000e+00 
4.8362886e-06 -7.7000839e-04 0.0000000e+00 
1.4741841e-05 -7.7000923e-04 0.0000000e+00 
-1.4973344e-05 -7.8319205e-04 0.0000000e+00 
-5.0678363e-06 -7.8320985e-04 0.0000000e+00 
4.8367361e-06 -7.8322205e-04 0.0000000e+00 
1.4742309e-05 -7.8323923e-04 0.0000000e+00 
-1.4968955e-05 -7.9641959e-04 0.0000000e+00 
-5.0656400e-06 -7.9642095e-04 0.0000000e+00 
4.8368058e-06 -7.9642695e-04 0.0000000e+00 
1.4740251e-05 -7.9642676e-04 0.0000000e+00 
-1.4962475e-05 -8.0960304e-04 0.0000000e+00 
-5.0626110e-06 -8.0962192e-04 0.0000000e+00 
4.8362847e-06 -8.0963429e-04 0.0000000e+00 
1.4736025e-05 -8.0965107e-04 0.0000000e+00 
-1.4953743e-05 -8.2282139e-04 0.0000000e+00 
-5.0589175e-06 -8.2282343e-04 0.0000000e+00 
4.8350706e-06 -8.2282948e-04 0.0000000e+00 
1.4729962e-05 -8.2282854e-04 0.0000000e+00 
-1.4943097e-05 -8.3599133e-04 0.0000000e+00 
-5.0544631e-06 -8.3601108e-04 0.0000000e+00 
4.8332912e-06 -8.3602356e-04 0.0000000e+00 
1.4721846e-05 -8.3603984e-04 0.0000000e+00 
-1.4930412e-05 -8.4919312e-04 0.0000000e+00 
-5.0493839e-06 -8.4919581e-04 0.0000000e+00 
4.8308800e-06 -8.4920190e-04 0.0000000e+00 
1.4711981e-05 -8.4920027e-04 0.0000000e+00 
-1.4915944e-05 -8.6234267e-04 0.0000000e+00 
-5.0436093e-06 -8.6236322e-04 0.0000000e+00 
4.8279420e-06 -8.6237581e-04 0.0000000e+00 
1.4700247e-05 -8.6239162e-04 0.0000000e+00 
-1.4899645e-05 -8.7552127e-04 0.0000000e+00 
-5.0372683e-06 -8.7552454e-04 0.0000000e+00 
4.8244227e-06 -8.7553067e-04 0.0000000e+00 
1.4686880e-05 -8.7552840e-04 0.0000000e+00 
-1.4881705e-05 -8.8864411e-04 0.0000000e+00 
-5.0303024e-06 -8.8866539e-04 0.0000000e+00 
4.8204174e-06 -8.8867808e-04 0.0000000e+00 
1.4671840e-05 -8.8869348e-04 0.0000000e+00 
-1.4862177e-05 -9.0179346e-04 0.0000000e+00 
-5.0228169e-06 -9.0179727e-04 0.0000000e+00 
4.8159006e-06 -9.0180342e-04 0.0000000e+00 
1.4655268e-05 -9.0180059e-04 0.0000000e+00 
-1.4841220e-05 -9.1488407e-04 0.0000000e+00 
-5.0147946e-06 -9.1490584e-04 0.0000000e+00 
4.8109276e-06 -9.1491858e-04 0.0000000e+00 
1.4637173e-05 -9.1493344e-04 0.0000000e+00 
-1.4818261e-05 -9.2799889e-04 0.0000000e+00 
-5.0067166e-06 -9.2800341e-04 0.0000000e+00 
4.8051060e-06 -9.2800845e-04 0.0000000e+00 
1.4618323e-05 -9.2800538e-04 0.0000000e+00 
-1.4792727e-05 -9.4105152e-04 0.0000000e+00 
-4.9987393e-06 -9.4107264e-04 0.0000000e+00 
4.7982929e-06 -9.4108828e-04 0.0000000e+00 
1.4599479e-05 -9.4110157e-04 0.0000000e+00 
-1.4769125e-05 -9.5410522e-04 0.0000000e+00 
-4.9837740e-06 -9.5412666e-04 0.0000000e+00 
4.7977730e-06 -9.5414236e-04 0.0000000e+00 
1.4576324e-05 -9.5415559e-04 0.0000000e+00 
-1.4741570e-05 -9.6715959e-04 0.0000000e+00 
-4.9751104e-06 -9.6716458e-04 0.0000000e+00 
4.7902256e-06 -9.6716964e-04 0.0000000e+00 
1.4555184e-05 -9.6716590e-04 0.0000000e+00 
-1.4714266e-05 -9.8014818e-04 0.0000000e+00 
-4.9656154e-06 -9.8017119e-04 0.0000000e+00 
4.7829431e-06 -9.8018410e-04 0.0000000e+00 
1.4532086e-05 -9.8019833e-04 0.0000000e+00 
-1.4687016e-05 -9.9315725e-04 0.0000000e+00 
-4.9555223e-06 -9.9316218e-04 0.0000000e+00 
4.7757702e-06 -9.9316832e-04 0.0000000e+00 
1.4507422e-05 -9.9316399e-04 0.0000000e+00 
-1.4658906e-05 -1.0060995e-03 0.0000000e+00 
-4.9452286e-06 -1.0061230e-03 0.0000000e+00 
4.7683473e-06 -1.0061359e-03 0.0000000e+00 
1.4482323e-05 -1.0061502e-03 0.0000000e+00 
-1.4630461e-05 -1.0190615e-03 0.0000000e+00 
-4.9348039e-06 -1.0190665e-03 0.0000000e+00 
4.7607041e-06 -1.0190726e-03 0.0000000e+00 
1.4456446e-05 -1.0190680e-03 0.0000000e+00 
-1.4601387e-05 -1.0319552e-03 0.0000000e+00 
-4.9242773e-06 -1.0319788e-03 0.0000000e+00 
4.7528440e-06 -1.0319918e-03 0.0000000e+00 
1.4430305e-05 -1.0320059e-03 0.0000000e+00 
-1.4572251e-05 -1.0448680e-03 0.0000000e+00 
-4.9136758e-06 -1.0448731e-03 0.0000000e+00 
4.7448402e-06 -1.0448792e-03 0.0000000e+00 
1.4403506e-05 -1.0448744e-03 0.0000000e+00 
-1.4542655e-05 -1.0577117e-03 0.0000000e+00 
-4.9030564e-06 -1.0577355e-03 0.0000000e+00 
4.7366643e-06 -1.0577485e-03 0.0000000e+00 
1.4376668e-05 -1.0577625e-03 0.0000000e+00 
-1.4513241e-05 -1.0705744e-03 0.0000000e+00 
-4.8924316e-06 -1.0705795e-03 0.0000000e+00 
4.7284036e-06 -1.0705855e-03 0.0000000e+00 
1.4349307e-05 -1.0705806e-03 0.0000000e+00 
-1.4483526e-05 -1.0833674e-03 0.0000000e+00 
-4.8818700e-06 -1.0833912e-03 0.0000000e+00 
4.7200128e-06 -1.0834041e-03 0.0000000e+00 
1.4322124e-05 -1.0834182e-03 0.0000000e+00 
-1.4454250e-05 -1.0961794e-03 0.0000000e+00 
-4.8713528e-06 -1.0961844e-03 0.0000000e+00 
4.7116092e-06 -1.0961904e-03 0.0000000e+00 
1.4294523e-05 -1.0961854e-03 0.0000000e+00 
-1.4424887e-05 -1.1089219e-03 0.0000000e+00 
-4.8609890e-06 -1.1089455e-03 0.0000000e+00 
4.7031016e-06 -1.1089583e-03 0.0000000e+00 
1.4267239e-05 -1.1089722e-03 0.0000000e+00 
-1.4395516e-05 -1.1216836e-03 0.0000000e+00 
-4.8511426e-06 -1.1216888e-03 0.0000000e+00 
4.6942242e-06 -1.1216935e-03 0.0000000e+00 
1.4240320e-05 -1.1216888e-03 0.0000000e+00 
-1.4364818e-05 -1.1343754e-03 0.0000000e+00 
-4.8421203e-06 -1.1343976e-03 0.0000000e+00 
4.6846615e-06 -1.1344133e-03 0.0000000e+00 
1.4215288e-05 -1.1344259e-03 0.0000000e+00 