# vtk DataFile Version 4.0
vtk output
ASCII
DATASET UNSTRUCTURED_GRID
POINTS 604 float
5.5000000e+00 5.9700000e+00 0.0000000e+00 
5.5000000e+00 5.9900000e+00 0.0000000e+00 
5.5266667e+00 5.9700000e+00 0.0000000e+00 
5.5266667e+00 5.9900000e+00 0.0000000e+00 
5.5000000e+00 6.0100000e+00 0.0000000e+00 
5.5266667e+00 6.0100000e+00 0.0000000e+00 
5.5533333e+00 5.9700000e+00 0.0000000e+00 
5.5533333e+00 5.9900000e+00 0.0000000e+00 
5.5000000e+00 6.0300000e+00 0.0000000e+00 
5.5266667e+00 6.0300000e+00 0.0000000e+00 
5.5533333e+00 6.0100000e+00 0.0000000e+00 
5.5800000e+00 5.9700000e+00 0.0000000e+00 
5.5533333e+00 6.0300000e+00 0.0000000e+00 
5.5800000e+00 5.9900000e+00 0.0000000e+00 
5.5800000e+00 6.0100000e+00 0.0000000e+00 
5.5800000e+00 6.0300000e+00 0.0000000e+00 
5.6066667e+00 5.9700000e+00 0.0000000e+00 
5.6066667e+00 5.9900000e+00 0.0000000e+00 
5.6066667e+00 6.0100000e+00 0.0000000e+00 
5.6066667e+00 6.0300000e+00 0.0000000e+00 
5.6333333e+00 5.9700000e+00 0.0000000e+00 
5.6333333e+00 5.9900000e+00 0.0000000e+00 
5.6333333e+00 6.0100000e+00 0.0000000e+00 
5.6333333e+00 6.0300000e+00 0.0000000e+00 
5.6600000e+00 5.9700000e+00 0.0000000e+00 
5.6600000e+00 5.9900000e+00 0.0000000e+00 
5.6600000e+00 6.0100000e+00 0.0000000e+00 
5.6600000e+00 6.0300000e+00 0.0000000e+00 
5.6866667e+00 5.9700000e+00 0.0000000e+00 
5.6866667e+00 5.9900000e+00 0.0000000e+00 
5.6866667e+00 6.0100000e+00 0.0000000e+00 
5.6866667e+00 6.0300000e+00 0.0000000e+00 
5.7133333e+00 5.9700000e+00 0.0000000e+00 
5.7133333e+00 5.9900000e+00 0.0000000e+00 
5.7133333e+00 6.0100000e+00 0.0000000e+00 
5.7133333e+00 6.0300000e+00 0.0000000e+00 
5.7400000e+00 5.9700000e+00 0.0000000e+00 
5.7400000e+00 5.9900000e+00 0.0000000e+00 
5.7400000e+00 6.0100000e+00 0.0000000e+00 
5.7400000e+00 6.0300000e+00 0.0000000e+00 
5.7666667e+00 5.9700000e+00 0.0000000e+00 
5.7666667e+00 5.9900000e+00 0.0000000e+00 
5.7666667e+00 6.0100000e+00 0.0000000e+00 
5.7666667e+00 6.0300000e+00 0.0000000e+00 
5.7933333e+00 5.9700000e+00 0.0000000e+00 
5.7933333e+00 5.9900000e+00 0.0000000e+00 
5.7933333e+00 6.0100000e+00 0.0000000e+00 
5.7933333e+00 6.0300000e+00 0.0000000e+00 
5.8200000e+00 5.9700000e+00 0.0000000e+00 
5.8200000e+00 5.9900000e+00 0.0000000e+00 
5.8200000e+00 6.0100000e+00 0.0000000e+00 
5.8200000e+00 6.0300000e+00 0.0000000e+00 
5.8466667e+00 5.9700000e+00 0.0000000e+00 
5.8466667e+00 5.9900000e+00 0.0000000e+00 
5.8466667e+00 6.0100000e+00 0.0000000e+00 
5.8466667e+00 6.0300000e+00 0.0000000e+00 
5.8733333e+00 5.9700000e+00 0.0000000e+00 
5.8733333e+00 5.9900000e+00 0.0000000e+00 
5.8733333e+00 6.0100000e+00 0.0000000e+00 
5.8733333e+00 6.0300000e+00 0.0000000e+00 
5.9000000e+00 5.9700000e+00 0.0000000e+00 
5.9000000e+00 5.9900000e+00 0.0000000e+00 
5.9000000e+00 6.0100000e+00 0.0000000e+00 
5.9000000e+00 6.0300000e+00 0.0000000e+00 
5.9266667e+00 5.9700000e+00 0.0000000e+00 
5.9266667e+00 5.9900000e+00 0.0000000e+00 
5.9266667e+00 6.0100000e+00 0.0000000e+00 
5.9266667e+00 6.0300000e+00 0.0000000e+00 
5.9533333e+00 5.9700000e+00 0.0000000e+00 
5.9533333e+00 5.9900000e+00 0.0000000e+00 
5.9533333e+00 6.0100000e+00 0.0000000e+00 
5.9533333e+00 6.0300000e+00 0.0000000e+00 
5.9800000e+00 5.9700000e+00 0.0000000e+00 
5.9800000e+00 5.9900000e+00 0.0000000e+00 
5.9800000e+00 6.0100000e+00 0.0000000e+00 
5.9800000e+00 6.0300000e+00 0.0000000e+00 
6.0066667e+00 5.9700000e+00 0.0000000e+00 
6.0066667e+00 5.9900000e+00 0.0000000e+00 
6.0066667e+00 6.0100000e+00 0.0000000e+00 
6.0066667e+00 6.0300000e+00 0.0000000e+00 
6.0333333e+00 5.9700000e+00 0.0000000e+00 
6.0333333e+00 5.9900000e+00 0.0000000e+00 
6.0333333e+00 6.0100000e+00 0.0000000e+00 
6.0333333e+00 6.0300000e+00 0.0000000e+00 
6.0600000e+00 5.9700000e+00 0.0000000e+00 
6.0600000e+00 5.9900000e+00 0.0000000e+00 
6.0600000e+00 6.0100000e+00 0.0000000e+00 
6.0600000e+00 6.0300000e+00 0.0000000e+00 
6.0866667e+00 5.9700000e+00 0.0000000e+00 
6.0866667e+00 5.9900000e+00 0.0000000e+00 
6.0866667e+00 6.0100000e+00 0.0000000e+00 
6.0866667e+00 6.0300000e+00 0.0000000e+00 
6.1133333e+00 5.9700000e+00 0.0000000e+00 
6.1133333e+00 5.9900000e+00 0.0000000e+00 
6.1133333e+00 6.0100000e+00 0.0000000e+00 
6.1133333e+00 6.0300000e+00 0.0000000e+00 
6.1400000e+00 5.9700000e+00 0.0000000e+00 
6.1400000e+00 5.9900000e+00 0.0000000e+00 
6.1400000e+00 6.0100000e+00 0.0000000e+00 
6.1400000e+00 6.0300000e+00 0.0000000e+00 
6.1666667e+00 5.9700000e+00 0.0000000e+00 
6.1666667e+00 5.9900000e+00 0.0000000e+00 
6.1666667e+00 6.0100000e+00 0.0000000e+00 
6.1666667e+00 6.0300000e+00 0.0000000e+00 
6.1933333e+00 5.9700000e+00 0.0000000e+00 
6.1933333e+00 5.9900000e+00 0.0000000e+00 
6.1933333e+00 6.0100000e+00 0.0000000e+00 
6.1933333e+00 6.0300000e+00 0.0000000e+00 
6.2200000e+00 5.9700000e+00 0.0000000e+00 
6.2200000e+00 5.9900000e+00 0.0000000e+00 
6.2200000e+00 6.0100000e+00 0.0000000e+00 
6.2200000e+00 6.0300000e+00 0.0000000e+00 
6.2466667e+00 5.9700000e+00 0.0000000e+00 
6.2466667e+00 5.9900000e+00 0.0000000e+00 
6.2466667e+00 6.0100000e+00 0.0000000e+00 
6.2466667e+00 6.0300000e+00 0.0000000e+00 
6.2733333e+00 5.9700000e+00 0.0000000e+00 
6.2733333e+00 5.9900000e+00 0.0000000e+00 
6.2733333e+00 6.0100000e+00 0.0000000e+00 
6.2733333e+00 6.0300000e+00 0.0000000e+00 
6.3000000e+00 5.9700000e+00 0.0000000e+00 
6.3000000e+00 5.9900000e+00 0.0000000e+00 
6.3000000e+00 6.0100000e+00 0.0000000e+00 
6.3000000e+00 6.0300000e+00 0.0000000e+00 
6.3266667e+00 5.9700000e+00 0.0000000e+00 
6.3266667e+00 5.9900000e+00 0.0000000e+00 
6.3266667e+00 6.0100000e+00 0.0000000e+00 
6.3266667e+00 6.0300000e+00 0.0000000e+00 
6.3533333e+00 5.9700000e+00 0.0000000e+00 
6.3533333e+00 5.9900000e+00 0.0000000e+00 
6.3533333e+00 6.0100000e+00 0.0000000e+00 
6.3533333e+00 6.0300000e+00 0.0000000e+00 
6.3800000e+00 5.9700000e+00 0.0000000e+00 
6.3800000e+00 5.9900000e+00 0.0000000e+00 
6.3800000e+00 6.0100000e+00 0.0000000e+00 
6.3800000e+00 6.0300000e+00 0.0000000e+00 
6.4066667e+00 5.9700000e+00 0.0000000e+00 
6.4066667e+00 5.9900000e+00 0.0000000e+00 
6.4066667e+00 6.0100000e+00 0.0000000e+00 
6.4066667e+00 6.0300000e+00 0.0000000e+00 
6.4333333e+00 5.9700000e+00 0.0000000e+00 
6.4333333e+00 5.9900000e+00 0.0000000e+00 
6.4333333e+00 6.0100000e+00 0.0000000e+00 
6.4333333e+00 6.0300000e+00 0.0000000e+00 
6.4600000e+00 5.9700000e+00 0.0000000e+00 
6.4600000e+00 5.9900000e+00 0.0000000e+00 
6.4600000e+00 6.0100000e+00 0.0000000e+00 
6.4600000e+00 6.0300000e+00 0.0000000e+00 
6.4866667e+00 5.9700000e+00 0.0000000e+00 
6.4866667e+00 5.9900000e+00 0.0000000e+00 
6.4866667e+00 6.0100000e+00 0.0000000e+00 
6.4866667e+00 6.0300000e+00 0.0000000e+00 
6.5133333e+00 5.9700000e+00 0.0000000e+00 
6.5133333e+00 5.9900000e+00 0.0000000e+00 
6.5133333e+00 6.0100000e+00 0.0000000e+00 
6.5133333e+00 6.0300000e+00 0.0000000e+00 
6.5400000e+00 5.9700000e+00 0.0000000e+00 
6.5400000e+00 5.9900000e+00 0.0000000e+00 
6.5400000e+00 6.0100000e+00 0.0000000e+00 
6.5400000e+00 6.0300000e+00 0.0000000e+00 
6.5666667e+00 5.9700000e+00 0.0000000e+00 
6.5666667e+00 5.9900000e+00 0.0000000e+00 
6.5666667e+00 6.0100000e+00 0.0000000e+00 
6.5666667e+00 6.0300000e+00 0.0000000e+00 
6.5933333e+00 5.9700000e+00 0.0000000e+00 
6.5933333e+00 5.9900000e+00 0.0000000e+00 
6.5933333e+00 6.0100000e+00 0.0000000e+00 
6.5933333e+00 6.0300000e+00 0.0000000e+00 
6.6200000e+00 5.9700000e+00 0.0000000e+00 
6.6200000e+00 5.9900000e+00 0.0000000e+00 
6.6200000e+00 6.0100000e+00 0.0000000e+00 
6.6200000e+00 6.0300000e+00 0.0000000e+00 
6.6466667e+00 5.9700000e+00 0.0000000e+00 
6.6466667e+00 5.9900000e+00 0.0000000e+00 
6.6466667e+00 6.0100000e+00 0.0000000e+00 
6.6466667e+00 6.0300000e+00 0.0000000e+00 
6.6733333e+00 5.9700000e+00 0.0000000e+00 
6.6733333e+00 5.9900000e+00 0.0000000e+00 
6.6733333e+00 6.0100000e+00 0.0000000e+00 
6.6733333e+00 6.0300000e+00 0.0000000e+00 
6.7000000e+00 5.9700000e+00 0.0000000e+00 
6.7000000e+00 5.9900000e+00 0.0000000e+00 
6.7000000e+00 6.0100000e+00 0.0000000e+00 
6.7000000e+00 6.0300000e+00 0.0000000e+00 
6.7266667e+00 5.9700000e+00 0.0000000e+00 
6.7266667e+00 5.9900000e+00 0.0000000e+00 
6.7266667e+00 6.0100000e+00 0.0000000e+00 
6.7266667e+00 6.0300000e+00 0.0000000e+00 
6.7533333e+00 5.9700000e+00 0.0000000e+00 
6.7533333e+00 5.9900000e+00 0.0000000e+00 
6.7533333e+00 6.0100000e+00 0.0000000e+00 
6.7533333e+00 6.0300000e+00 0.0000000e+00 
6.7800000e+00 5.9700000e+00 0.0000000e+00 
6.7800000e+00 5.9900000e+00 0.0000000e+00 
6.7800000e+00 6.0100000e+00 0.0000000e+00 
6.7800000e+00 6.0300000e+00 0.0000000e+00 
6.8066667e+00 5.9700000e+00 0.0000000e+00 
6.8066667e+00 5.9900000e+00 0.0000000e+00 
6.8066667e+00 6.0100000e+00 0.0000000e+00 
6.8066667e+00 6.0300000e+00 0.0000000e+00 
6.8333333e+00 5.9700000e+00 0.0000000e+00 
6.8333333e+00 5.9900000e+00 0.0000000e+00 
6.8333333e+00 6.0100000e+00 0.0000000e+00 
6.8333333e+00 6.0300000e+00 0.0000000e+00 
6.8600000e+00 5.9700000e+00 0.0000000e+00 
6.8600000e+00 5.9900000e+00 0.0000000e+00 
6.8600000e+00 6.0100000e+00 0.0000000e+00 
6.8600000e+00 6.0300000e+00 0.0000000e+00 
6.8866667e+00 5.9700000e+00 0.0000000e+00 
6.8866667e+00 5.9900000e+00 0.0000000e+00 
6.8866667e+00 6.0100000e+00 0.0000000e+00 
6.8866667e+00 6.0300000e+00 0.0000000e+00 
6.9133333e+00 5.9700000e+00 0.0000000e+00 
6.9133333e+00 5.9900000e+00 0.0000000e+00 
6.9133333e+00 6.0100000e+00 0.0000000e+00 
6.9133333e+00 6.0300000e+00 0.0000000e+00 
6.9400000e+00 5.9700000e+00 0.0000000e+00 
6.9400000e+00 5.9900000e+00 0.0000000e+00 
6.9400000e+00 6.0100000e+00 0.0000000e+00 
6.9400000e+00 6.0300000e+00 0.0000000e+00 
6.9666667e+00 5.9700000e+00 0.0000000e+00 
6.9666667e+00 5.9900000e+00 0.0000000e+00 
6.9666667e+00 6.0100000e+00 0.0000000e+00 
6.9666667e+00 6.0300000e+00 0.0000000e+00 
6.9933333e+00 5.9700000e+00 0.0000000e+00 
6.9933333e+00 5.9900000e+00 0.0000000e+00 
6.9933333e+00 6.0100000e+00 0.0000000e+00 
6.9933333e+00 6.0300000e+00 0.0000000e+00 
7.0200000e+00 5.9700000e+00 0.0000000e+00 
7.0200000e+00 5.9900000e+00 0.0000000e+00 
[...]
POINT_DATA 604
FIELD FieldData 2
DISPLACEMENT 3 604  float
0.0000000e+00 0.0000000e+00 0.0000000e+00 
0.0000000e+00 0.0000000e+00 0.0000000e+00 
-1.0749734e-06 -6.1382826e-07 0.0000000e+00 
-3.6328161e-07 -3.8148751e-07 0.0000000e+00 
0.0000000e+00 0.0000000e+00 0.0000000e+00 
3.1501222e-07 -3.7709606e-07 0.0000000e+00 
-2.1999320e-06 -1.9803439e-06 0.0000000e+00 
-7.6768563e-07 -1.8002159e-06 0.0000000e+00 
0.0000000e+00 0.0000000e+00 0.0000000e+00 
1.0305993e-06 -5.9335219e-07 0.0000000e+00 
6.7721114e-07 -1.8049423e-06 0.0000000e+00 
-3.3387893e-06 -4.4066216e-06 0.0000000e+00 
2.1102544e-06 -2.0049546e-06 0.0000000e+00 
-1.1588617e-06 -4.2009126e-06 0.0000000e+00 
1.0252251e-06 -4.1979895e-06 0.0000000e+00 
3.2048916e-06 -4.3859804e-06 0.0000000e+00 
-4.4883622e-06 -7.7815703e-06 0.0000000e+00 
-1.5569584e-06 -7.5936399e-06 0.0000000e+00 
1.3794139e-06 -7.5978210e-06 0.0000000e+00 
4.3107243e-06 -7.8059051e-06 0.0000000e+00 
-5.6490646e-06 -1.2210812e-05 0.0000000e+00 
-1.9590297e-06 -1.2001979e-05 0.0000000e+00 
1.7364635e-06 -1.1998082e-05 0.0000000e+00 
5.4279955e-06 -1.2189969e-05 0.0000000e+00 
-6.8191543e-06 -1.7611175e-05 0.0000000e+00 
-2.3657072e-06 -1.7418246e-05 0.0000000e+00 
2.0961843e-06 -1.7425371e-05 0.0000000e+00 
6.5573017e-06 -1.7636155e-05 0.0000000e+00 
-8.0032958e-06 -2.4062248e-05 0.0000000e+00 
-2.7692097e-06 -2.3867400e-05 0.0000000e+00 
2.4656146e-06 -2.3874644e-05 0.0000000e+00 
7.6930823e-06 -2.4086952e-05 0.0000000e+00 
-9.1945971e-06 -3.1571655e-05 0.0000000e+00 
-3.1832841e-06 -3.1358189e-05 0.0000000e+00 
2.8310453e-06 -3.1354593e-05 0.0000000e+00 
8.8404874e-06 -3.1552155e-05 0.0000000e+00 
-1.0395930e-05 -4.0079907e-05 0.0000000e+00 
-3.6004335e-06 -3.9883236e-05 0.0000000e+00 
3.1992841e-06 -3.9887607e-05 0.0000000e+00 
9.9957461e-06 -4.0104249e-05 0.0000000e+00 
-1.1607753e-05 -4.9683616e-05 0.0000000e+00 
-4.0204327e-06 -4.9467377e-05 0.0000000e+00 
3.5703547e-06 -4.9465294e-05 0.0000000e+00 
1.1157502e-05 -4.9666041e-05 0.0000000e+00 
-1.2827450e-05 -6.0302974e-05 0.0000000e+00 
-4.4439330e-06 -6.0103716e-05 0.0000000e+00 
3.9432873e-06 -6.0108352e-05 0.0000000e+00 
1.2327501e-05 -6.0328056e-05 0.0000000e+00 
-1.4056209e-05 -7.2031024e-05 0.0000000e+00 
-4.8704914e-06 -7.1812727e-05 0.0000000e+00 
4.3182564e-06 -7.1811128e-05 0.0000000e+00 
1.3503685e-05 -7.2015151e-05 0.0000000e+00 
-1.5292148e-05 -8.4789227e-05 0.0000000e+00 
-5.3003575e-06 -8.4587661e-05 0.0000000e+00 
4.6947047e-06 -8.4592651e-05 0.0000000e+00 
1.4687083e-05 -8.4815093e-05 0.0000000e+00 
-1.6536329e-05 -9.8667735e-05 0.0000000e+00 
-5.7330704e-06 -9.8447842e-05 0.0000000e+00 
5.0728337e-06 -9.8446879e-05 0.0000000e+00 
1.5875777e-05 -9.8654044e-05 0.0000000e+00 
-1.7787004e-05 -1.1358955e-04 0.0000000e+00 
-6.1688497e-06 -1.1338616e-04 0.0000000e+00 
5.4521168e-06 -1.1339170e-04 0.0000000e+00 
1.7070680e-05 -1.1361678e-04 0.0000000e+00 
-1.9045015e-05 -1.2964188e-04 0.0000000e+00 
-6.6072838e-06 -1.2942084e-04 0.0000000e+00 
5.8327168e-06 -1.2942068e-04 0.0000000e+00 
1.8270108e-05 -1.2963084e-04 0.0000000e+00 
-2.0308887e-05 -1.4674903e-04 0.0000000e+00 
-7.0485216e-06 -1.4654435e-04 0.0000000e+00 
6.2141765e-06 -1.4655064e-04 0.0000000e+00 
1.9474720e-05 -1.4677829e-04 0.0000000e+00 
-2.1579166e-05 -1.6499561e-04 0.0000000e+00 
-7.4922115e-06 -1.6477388e-04 0.0000000e+00 
6.5966083e-06 -1.6477470e-04 0.0000000e+00 
2.0683136e-05 -1.6498776e-04 0.0000000e+00 
-2.2854758e-05 -1.8430703e-04 0.0000000e+00 
-7.9384392e-06 -1.8410146e-04 0.0000000e+00 
6.9796159e-06 -1.8410870e-04 0.0000000e+00 
2.1895640e-05 -1.8433875e-04 0.0000000e+00 
-2.4135226e-05 -2.0476553e-04 0.0000000e+00 
-8.3872716e-06 -2.0454377e-04 0.0000000e+00 
7.3628913e-06 -2.0454480e-04 0.0000000e+00 
2.3111846e-05 -2.0476082e-04 0.0000000e+00 
-2.5419286e-05 -2.2629649e-04 0.0000000e+00 
-8.8388765e-06 -2.2608961e-04 0.0000000e+00 
7.7460211e-06 -2.2610055e-04 0.0000000e+00 
2.4332206e-05 -2.2633210e-04 0.0000000e+00 
-2.6710517e-05 -2.4896229e-04 0.0000000e+00 
-9.2866003e-06 -2.4875554e-04 0.0000000e+00 
8.1350546e-06 -2.4876715e-04 0.0000000e+00 
2.5552296e-05 -2.4899988e-04 0.0000000e+00 
-2.8002514e-05 -2.7276539e-04 0.0000000e+00 
-9.7421330e-06 -2.7254420e-04 0.0000000e+00 
8.5183416e-06 -2.7254734e-04 0.0000000e+00 
2.6776909e-05 -2.7276713e-04 0.0000000e+00 
-2.9298969e-05 -2.9764939e-04 0.0000000e+00 
-1.0198804e-05 -2.9744456e-04 0.0000000e+00 
8.9018840e-06 -2.9745526e-04 0.0000000e+00 
2.8001516e-05 -2.9769137e-04 0.0000000e+00 
-3.0598513e-05 -3.2369358e-04 0.0000000e+00 
-1.0656805e-05 -3.2347314e-04 0.0000000e+00 
9.2853386e-06 -3.2347891e-04 0.0000000e+00 
2.9226663e-05 -3.2370073e-04 0.0000000e+00 
-3.1900756e-05 -3.5082219e-04 0.0000000e+00 
-1.1116205e-05 -3.5061883e-04 0.0000000e+00 
9.6683034e-06 -3.5063136e-04 0.0000000e+00 
3.0451909e-05 -3.5086993e-04 0.0000000e+00 
-3.3204622e-05 -3.7911386e-04 0.0000000e+00 
-1.1577091e-05 -3.7889484e-04 0.0000000e+00 
1.0050470e-05 -3.7890244e-04 0.0000000e+00 
3.1677526e-05 -3.7912638e-04 0.0000000e+00 
-3.4510607e-05 -4.0849114e-04 0.0000000e+00 
-1.2039141e-05 -4.0828964e-04 0.0000000e+00 
1.0431837e-05 -4.0830416e-04 0.0000000e+00 
3.2902188e-05 -4.0854499e-04 0.0000000e+00 
-3.5817364e-05 -4.3903300e-04 0.0000000e+00 
-1.2502482e-05 -4.3881586e-04 0.0000000e+00 
1.0812062e-05 -4.3882547e-04 0.0000000e+00 
3.4126444e-05 -4.3905141e-04 0.0000000e+00 
-3.7125598e-05 -4.7066027e-04 0.0000000e+00 
-1.2966752e-05 -4.7046111e-04 0.0000000e+00 
1.1191178e-05 -4.7047782e-04 0.0000000e+00 
3.5348765e-05 -4.7072083e-04 0.0000000e+00 
-3.8433766e-05 -5.0345231e-04 0.0000000e+00 
-1.3432133e-05 -5.0323748e-04 0.0000000e+00 
1.1568796e-05 -5.0324925e-04 0.0000000e+00 
3.6569905e-05 -5.0347706e-04 0.0000000e+00 
-3.9742763e-05 -5.3732798e-04 0.0000000e+00 
-1.3898220e-05 -5.3713164e-04 0.0000000e+00 
1.1944993e-05 -5.3715072e-04 0.0000000e+00 
3.7788154e-05 -5.3739584e-04 0.0000000e+00 
-4.1050909e-05 -5.7236730e-04 0.0000000e+00 
-1.4365226e-05 -5.7215522e-04 0.0000000e+00 
1.2319354e-05 -5.7216932e-04 0.0000000e+00 
3.9004409e-05 -5.7239888e-04 0.0000000e+00 
-4.2359287e-05 -6.0848716e-04 0.0000000e+00 
-1.4832739e-05 -6.0829394e-04 0.0000000e+00 
1.2691961e-05 -6.0831552e-04 0.0000000e+00 
4.0216786e-05 -6.0856249e-04 0.0000000e+00 
-4.3665395e-05 -6.4576814e-04 0.0000000e+00 
-1.5301382e-05 -6.4555948e-04 0.0000000e+00 
1.3061992e-05 -6.4557497e-04 0.0000000e+00 
4.1427012e-05 -6.4580640e-04 0.0000000e+00 
-4.4969847e-05 -6.8412429e-04 0.0000000e+00 
-1.5770869e-05 -6.8393355e-04 0.0000000e+00 
1.3429467e-05 -6.8396071e-04 0.0000000e+00 
4.2633665e-05 -6.8420844e-04 0.0000000e+00 
-4.6275144e-05 -7.2361678e-04 0.0000000e+00 
-1.6234133e-05 -7.2342837e-04 0.0000000e+00 
1.3800885e-05 -7.2345682e-04 0.0000000e+00 
4.3833444e-05 -7.2370566e-04 0.0000000e+00 
-4.7574522e-05 -7.6424381e-04 0.0000000e+00 
-1.6704165e-05 -7.6404073e-04 0.0000000e+00 
1.4163318e-05 -7.6406031e-04 0.0000000e+00 
4.5031554e-05 -7.6429375e-04 0.0000000e+00 
-4.8873218e-05 -8.0593512e-04 0.0000000e+00 
-1.7173448e-05 -8.0575242e-04 0.0000000e+00 
1.4523606e-05 -8.0578116e-04 0.0000000e+00 
4.6221987e-05 -8.0603270e-04 0.0000000e+00 
-5.0168652e-05 -8.4877529e-04 0.0000000e+00 
-1.7642560e-05 -8.4857623e-04 0.0000000e+00 
1.4881084e-05 -8.4859970e-04 0.0000000e+00 
4.7406589e-05 -8.4883397e-04 0.0000000e+00 
-5.1461443e-05 -8.9267116e-04 0.0000000e+00 
-1.8111360e-05 -8.9249349e-04 0.0000000e+00 
1.5235551e-05 -8.9252530e-04 0.0000000e+00 
4.8583976e-05 -8.9277844e-04 0.0000000e+00 
-5.2749712e-05 -9.3770821e-04 0.0000000e+00 
-1.8580197e-05 -9.3751377e-04 0.0000000e+00 
1.5586504e-05 -9.3754016e-04 0.0000000e+00 
4.9755333e-05 -9.3777536e-04 0.0000000e+00 
-5.4034739e-05 -9.8379036e-04 0.0000000e+00 
-1.9048569e-05 -9.8361793e-04 0.0000000e+00 
1.5934116e-05 -9.8365286e-04 0.0000000e+00 
5.0918624e-05 -9.8390731e-04 0.0000000e+00 
-5.5314658e-05 -1.0310046e-03 0.0000000e+00 
-1.9516804e-05 -1.0308152e-03 0.0000000e+00 
1.6277918e-05 -1.0308446e-03 0.0000000e+00 
5.2075064e-05 -1.0310806e-03 0.0000000e+00 
-5.6590693e-05 -1.0792524e-03 0.0000000e+00 
-1.9984423e-05 -1.0790855e-03 0.0000000e+00 
1.6618069e-05 -1.0791237e-03 0.0000000e+00 
5.3222689e-05 -1.0793793e-03 0.0000000e+00 
-5.7861051e-05 -1.1286220e-03 0.0000000e+00 
-2.0451752e-05 -1.1284379e-03 0.0000000e+00 
1.6954116e-05 -1.1284704e-03 0.0000000e+00 
5.4362687e-05 -1.1287071e-03 0.0000000e+00 
-5.9126911e-05 -1.1790122e-03 0.0000000e+00 
-2.0918325e-05 -1.1788512e-03 0.0000000e+00 
1.7286213e-05 -1.1788927e-03 0.0000000e+00 
5.5493167e-05 -1.1791494e-03 0.0000000e+00 
-6.0386594e-05 -1.2305127e-03 0.0000000e+00 
-2.1384446e-05 -1.2303343e-03 0.0000000e+00 
1.7613945e-05 -1.2303701e-03 0.0000000e+00 
5.6615253e-05 -1.2306073e-03 0.0000000e+00 
-6.1641265e-05 -1.2830202e-03 0.0000000e+00 
-2.1849700e-05 -1.2828653e-03 0.0000000e+00 
1.7937428e-05 -1.2829101e-03 0.0000000e+00 
5.7727104e-05 -1.2831674e-03 0.0000000e+00 
-6.2888527e-05 -1.3366253e-03 0.0000000e+00 
-2.2314824e-05 -1.3364531e-03 0.0000000e+00 
1.8255829e-05 -1.3364909e-03 0.0000000e+00 
5.8830616e-05 -1.3367288e-03 0.0000000e+00 
-6.4128764e-05 -1.3912218e-03 0.0000000e+00 
-2.2779605e-05 -1.3910718e-03 0.0000000e+00 
1.8569116e-05 -1.3911234e-03 0.0000000e+00 
5.9924753e-05 -1.3913801e-03 0.0000000e+00 
-6.5365595e-05 -1.4468773e-03 0.0000000e+00 
-2.3235782e-05 -1.4467309e-03 0.0000000e+00 
1.8885178e-05 -1.4467842e-03 0.0000000e+00 
6.1005389e-05 -1.4470414e-03 0.0000000e+00 
-6.6591474e-05 -1.5035852e-03 0.0000000e+00 
-2.3698685e-05 -1.5034225e-03 0.0000000e+00 
1.9188766e-05 -1.5034654e-03 0.0000000e+00 
6.2078963e-05 -1.5037037e-03 0.0000000e+00 
-6.7812102e-05 -1.5612597e-03 0.0000000e+00 
-2.4159650e-05 -1.5611215e-03 0.0000000e+00 
1.9488018e-05 -1.5611753e-03 0.0000000e+00 
6.3139275e-05 -1.5614342e-03 0.0000000e+00 
-6.9025499e-05 -1.6199953e-03 0.0000000e+00 
-2.4619232e-05 -1.6198389e-03 0.0000000e+00 
1.9782426e-05 -1.6198865e-03 0.0000000e+00 
6.4187945e-05 -1.6201245e-03 0.0000000e+00 
-7.0231730e-05 -1.6796805e-03 0.0000000e+00 
-2.5077492e-05 -1.6795495e-03 0.0000000e+00 
2.0071658e-05 -1.6796069e-03 0.0000000e+00 
6.5224439e-05 -1.6798663e-03 0.0000000e+00 
-7.1429694e-05 -1.7404104e-03 0.0000000e+00 
-2.5534727e-05 -1.7402609e-03 0.0000000e+00 
2.0355425e-05 -1.7403120e-03 0.0000000e+00 
6.6249545e-05 -1.7405499e-03 0.0000000e+00 
-7.2620214e-05 -1.8020716e-03 0.0000000e+00 
-2.5990580e-05 -1.8019478e-03 0.0000000e+00 
2.0633829e-05 -1.8020088e-03 0.0000000e+00 
6.7262032e-05 -1.8022685e-03 0.0000000e+00 
-7.3802224e-05 -1.8647603e-03 0.0000000e+00 
-2.6445315e-05 -1.8646178e-03 0.0000000e+00 
2.0906640e-05 -1.8646724e-03 0.0000000e+00 
6.8262694e-05 -1.8649101e-03 0.0000000e+00 
-7.4976491e-05 -1.9283615e-03 0.0000000e+00 
-2.6898603e-05 -1.9282451e-03 0.0000000e+00 
2.1173939e-05 -1.9283097e-03 0.0000000e+00 
6.9250418e-05 -1.9285695e-03 0.0000000e+00 
-7.6142011e-05 -1.9929725e-03 0.0000000e+00 
-2.7350711e-05 -1.9928371e-03 0.0000000e+00 
2.1435520e-05 -1.9928953e-03 0.0000000e+00 
7.0225963e-05 -1.9931328e-03 0.0000000e+00 
-7.7299534e-05 -2.0584766e-03 0.0000000e+00 
-2.7801309e-05 -2.0583677e-03 0.0000000e+00 
2.1691464e-05 -2.0584360e-03 0.0000000e+00 
7.1188295e-05 -2.0586959e-03 0.0000000e+00 
-7.8448129e-05 -2.1249724e-03 0.0000000e+00 
-2.8250652e-05 -2.1248443e-03 0.0000000e+00 
2.1941605e-05 -2.1249061e-03 0.0000000e+00 
7.2138124e-05 -2.1251434e-03 0.0000000e+00 
-7.9588585e-05 -2.1923419e-03 0.0000000e+00 
-2.8698447e-05 -2.1922404e-03 0.0000000e+00 
2.2185988e-05 -2.1923123e-03 0.0000000e+00 
7.3074426e-05 -2.1925720e-03 0.0000000e+00 
-8.0719090e-05 -2.2606843e-03 0.0000000e+00 
-2.9145445e-05 -2.2605639e-03 0.0000000e+00 
2.2423970e-05 -2.2606278e-03 0.0000000e+00 
7.3998808e-05 -2.2608652e-03 0.0000000e+00 
-8.1839615e-05 -2.3298796e-03 0.0000000e+00 
-2.9591550e-05 -2.3297841e-03 0.0000000e+00 
2.2655416e-05 -2.3298634e-03 0.0000000e+00 
7.4911091e-05 -2.3301215e-03 0.0000000e+00 
-8.2954861e-05 -2.4000013e-03 0.0000000e+00 
-3.0027603e-05 -2.3999099e-03 0.0000000e+00 
2.2889371e-05 -2.3999911e-03 0.0000000e+00 
7.5806303e-05 -2.4002492e-03 0.0000000e+00 
-8.4056659e-05 -2.4710403e-03 0.0000000e+00 
-3.0470661e-05 -2.4709312e-03 0.0000000e+00 
2.3108880e-05 -2.4710006e-03 0.0000000e+00 
7.6692018e-05 -2.4712374e-03 0.0000000e+00 
-8.5151132e-05 -2.5429008e-03 0.0000000e+00 
-3.0911189e-05 -2.5428188e-03 0.0000000e+00 
2.3323087e-05 -2.5429002e-03 0.0000000e+00 
7.7562018e-05 -2.5431597e-03 0.0000000e+00 
-8.6236632e-05 -2.6156859e-03 0.0000000e+00 
-3.1349755e-05 -2.6155840e-03 0.0000000e+00 
2.3531627e-05 -2.6156585e-03 0.0000000e+00 
7.8417742e-05 -2.6158944e-03 0.0000000e+00 
-8.7312951e-05 -2.6892718e-03 0.0000000e+00 
-3.1786480e-05 -2.6891980e-03 0.0000000e+00 
2.3734093e-05 -2.6892832e-03 0.0000000e+00 
7.9259248e-05 -2.6895426e-03 0.0000000e+00 
-8.8379309e-05 -2.7637625e-03 0.0000000e+00 
-3.2221683e-05 -2.7636682e-03 0.0000000e+00 
2.3930326e-05 -2.7637463e-03 0.0000000e+00 
8.0087106e-05 -2.7639816e-03 0.0000000e+00 
-8.9436366e-05 -2.8390318e-03 0.0000000e+00 
-3.2654992e-05 -2.8389660e-03 0.0000000e+00 
2.4120411e-05 -2.8390550e-03 0.0000000e+00 
8.0900492e-05 -2.8393141e-03 0.0000000e+00 
-9.0483310e-05 -2.9151856e-03 0.0000000e+00 
-3.3086696e-05 -2.9150991e-03 0.0000000e+00 
2.4304224e-05 -2.9151809e-03 0.0000000e+00 
8.1700008e-05 -2.9154154e-03 0.0000000e+00 
-9.1520738e-05 -2.9920960e-03 0.0000000e+00 
-3.3516433e-05 -2.9920383e-03 0.0000000e+00 
2.4481831e-05 -2.9921310e-03 0.0000000e+00 
8.2484877e-05 -2.9923898e-03 0.0000000e+00 
-9.2547868e-05 -3.0698703e-03 0.0000000e+00 
-3.3944494e-05 -3.0697915e-03 0.0000000e+00 
2.4653107e-05 -3.0698768e-03 0.0000000e+00 
8.3255670e-05 -3.0701106e-03 0.0000000e+00 
-9.3565249e-05 -3.1483785e-03 0.0000000e+00 
-3.4370509e-05 -3.1483290e-03 0.0000000e+00 
2.4818119e-05 -3.1484254e-03 0.0000000e+00 
8.4011639e-05 -3.1486837e-03 0.0000000e+00 
-9.4572174e-05 -3.2277297e-03 0.0000000e+00 
-3.4794748e-05 -3.2276587e-03 0.0000000e+00 
2.4976766e-05 -3.2277477e-03 0.0000000e+00 
8.4753286e-05 -3.2279806e-03 0.0000000e+00 
-9.5569185e-05 -3.3077923e-03 0.0000000e+00 
-3.5216878e-05 -3.3077507e-03 0.0000000e+00 
2.5129069e-05 -3.3078507e-03 0.0000000e+00 
8.5479848e-05 -3.3081082e-03 0.0000000e+00 
-9.6554623e-05 -3.3886762e-03 0.0000000e+00 
-3.5637713e-05 -3.3886135e-03 0.0000000e+00 
2.5274388e-05 -3.3887044e-03 0.0000000e+00 
8.6192791e-05 -3.3889368e-03 0.0000000e+00 
-9.7528028e-05 -3.4702476e-03 0.0000000e+00 
-3.6057164e-05 -3.4702125e-03 0.0000000e+00 
2.5412521e-05 -3.4703202e-03 0.0000000e+00 
8.6892314e-05 -3.4705753e-03 0.0000000e+00 
-9.8494981e-05 -3.5525880e-03 0.0000000e+00 
-3.6464990e-05 -3.5525572e-03 0.0000000e+00 
2.5553579e-05 -3.5526668e-03 0.0000000e+00 
8.7572558e-05 -3.5529216e-03 0.0000000e+00 
-9.9446382e-05 -3.6356869e-03 0.0000000e+00 
-3.6880183e-05 -3.6356360e-03 0.0000000e+00 
2.5678707e-05 -3.6357322e-03 0.0000000e+00 
8.8241895e-05 -3.6359628e-03 0.0000000e+00 
-1.0038855e-04 -3.7194368e-03 0.0000000e+00 
-3.7292132e-05 -3.7194160e-03 0.0000000e+00 
2.5798028e-05 -3.7195252e-03 0.0000000e+00 
8.8893831e-05 -3.7197807e-03 0.0000000e+00 
-1.0132024e-04 -3.8039526e-03 0.0000000e+00 
-3.7701377e-05 -3.8039093e-03 0.0000000e+00 
2.5911257e-05 -3.8040105e-03 0.0000000e+00 
8.9529465e-05 -3.8042393e-03 0.0000000e+00 
-1.0224059e-04 -3.8890957e-03 0.0000000e+00 
-3.8108128e-05 -3.8890834e-03 0.0000000e+00 
2.6017854e-05 -3.8891961e-03 0.0000000e+00 
9.0149418e-05 -3.8894507e-03 0.0000000e+00 
-1.0314939e-04 -3.9749815e-03 0.0000000e+00 
-3.8512633e-05 -3.9749462e-03 0.0000000e+00 
2.6117771e-05 -3.9750506e-03 0.0000000e+00 
9.0753780e-05 -3.9752779e-03 0.0000000e+00 
-1.0404668e-04 -4.0614694e-03 0.0000000e+00 
-3.8914586e-05 -4.0614654e-03 0.0000000e+00 
2.6210999e-05 -4.0615814e-03 0.0000000e+00 
9.1342274e-05 -4.0618347e-03 0.0000000e+00 
-1.0493232e-04 -4.1486764e-03 0.0000000e+00 
-3.9314179e-05 -4.1486491e-03 0.0000000e+00 
2.6297557e-05 -4.1487568e-03 0.0000000e+00 
9.1914970e-05 -4.1489824e-03 0.0000000e+00 
-1.0580623e-04 -4.2364605e-03 0.0000000e+00 
-3.9711149e-05 -4.2364647e-03 0.0000000e+00 
2.6377398e-05 -4.2365840e-03 0.0000000e+00 
9.2471732e-05 -4.2368358e-03 0.0000000e+00 
-1.0666836e-04 -4.3249396e-03 0.0000000e+00 
-4.0105671e-05 -4.3249202e-03 0.0000000e+00 
2.6450572e-05 -4.3250311e-03 0.0000000e+00 
9.3012553e-05 -4.3252549e-03 0.0000000e+00 
-1.0751856e-04 -4.4139707e-03 0.0000000e+00 
-4.0497504e-05 -4.4139830e-03 0.0000000e+00 
2.6517016e-05 -4.4141055e-03 0.0000000e+00 
9.3537405e-05 -4.4143557e-03 0.0000000e+00 
-1.0835694e-04 -4.5036724e-03 0.0000000e+00 
-4.0886784e-05 -4.5036610e-03 0.0000000e+00 
2.6576835e-05 -4.5037749e-03 0.0000000e+00 
9.4046176e-05 -4.5039969e-03 0.0000000e+00 
-1.0918330e-04 -4.5939012e-03 0.0000000e+00 
-4.1273332e-05 -4.5939213e-03 0.0000000e+00 
2.6629904e-05 -4.5940468e-03 0.0000000e+00 
9.4538885e-05 -4.5942949e-03 0.0000000e+00 
-1.0999677e-04 -4.6847759e-03 0.0000000e+00 
-4.1657852e-05 -4.6847727e-03 0.0000000e+00 
2.6675779e-05 -4.6848879e-03 0.0000000e+00 
9.5016427e-05 -4.6851083e-03 0.0000000e+00 
-1.1079609e-04 -4.7761515e-03 0.0000000e+00 
-4.2040452e-05 -4.7761776e-03 0.0000000e+00 
2.6714066e-05 -4.7763104e-03 0.0000000e+00 
9.5479910e-05 -4.7765548e-03 0.0000000e+00 
-1.1158800e-04 -4.8681157e-03 0.0000000e+00 
-4.2410115e-05 -4.8681458e-03 0.0000000e+00 
2.6755776e-05 -4.8682801e-03 0.0000000e+00 
9.5922512e-05 -4.8685234e-03 0.0000000e+00 
-1.1236288e-04 -4.9606561e-03 0.0000000e+00 
-4.2787159e-05 -4.9606646e-03 0.0000000e+00 
2.6780760e-05 -4.9607840e-03 0.0000000e+00 
9.6353392e-05 -4.9610011e-03 0.0000000e+00 
-1.1312695e-04 -5.0536589e-03 0.0000000e+00 
-4.3160365e-05 -5.0536987e-03 0.0000000e+00 
2.6799816e-05 -5.0538314e-03 0.0000000e+00 
9.6766339e-05 -5.0540744e-03 0.0000000e+00 
-1.1387970e-04 -5.1472450e-03 0.0000000e+00 
-4.3530131e-05 -5.1472607e-03 0.0000000e+00 
2.6812908e-05 -5.1473846e-03 0.0000000e+00 
9.7161946e-05 -5.1475989e-03 0.0000000e+00 
-1.1461963e-04 -5.2412687e-03 0.0000000e+00 
-4.3896868e-05 -5.2413164e-03 0.0000000e+00 
2.6819318e-05 -5.2414518e-03 0.0000000e+00 
9.7541665e-05 -5.2416927e-03 0.0000000e+00 
-1.1534720e-04 -5.3358504e-03 0.0000000e+00 
-4.4260696e-05 -5.3358737e-03 0.0000000e+00 
2.6819235e-05 -5.3360002e-03 0.0000000e+00 
9.7905107e-05 -5.3362120e-03 0.0000000e+00 
-1.1606198e-04 -5.4308439e-03 0.0000000e+00 
-4.4621452e-05 -5.4308992e-03 0.0000000e+00 
2.6812527e-05 -5.4310372e-03 0.0000000e+00 
9.8252662e-05 -5.4312756e-03 0.0000000e+00 
-1.1676440e-04 -5.5263701e-03 0.0000000e+00 
-4.4979212e-05 -5.5264008e-03 0.0000000e+00 
2.6799433e-05 -5.5265297e-03 0.0000000e+00 
9.8584018e-05 -5.5267390e-03 0.0000000e+00 
-1.1745400e-04 -5.6222824e-03 0.0000000e+00 
-4.5333831e-05 -5.6223452e-03 0.0000000e+00 
2.6779804e-05 -5.6224856e-03 0.0000000e+00 
9.8899583e-05 -5.6227214e-03 0.0000000e+00 
-1.1813117e-04 -5.7187022e-03 0.0000000e+00 
-4.5685393e-05 -5.7187403e-03 0.0000000e+00 
2.6753882e-05 -5.7188716e-03 0.0000000e+00 
9.9199090e-05 -5.7190782e-03 0.0000000e+00 
-1.1879552e-04 -5.8154827e-03 0.0000000e+00 
-4.6033740e-05 -5.8155528e-03 0.0000000e+00 
2.6721525e-05 -5.8156955e-03 0.0000000e+00 
9.9482910e-05 -5.8159286e-03 0.0000000e+00 
-1.1944741e-04 -5.9127453e-03 0.0000000e+00 
-4.6378943e-05 -5.9127907e-03 0.0000000e+00 
2.6682998e-05 -5.9129242e-03 0.0000000e+00 
9.9750803e-05 -5.9131282e-03 0.0000000e+00 
-1.2008656e-04 -6.0103438e-03 0.0000000e+00 
-4.6720874e-05 -6.0104207e-03 0.0000000e+00 
2.6638128e-05 -6.0105656e-03 0.0000000e+00 
1.0000302e-04 -6.0107957e-03 0.0000000e+00 
-1.2071220e-04 -6.1083990e-03 0.0000000e+00 
-4.7060206e-05 -6.1084518e-03 0.0000000e+00 
2.6586583e-05 -6.1085858e-03 0.0000000e+00 
1.0024050e-04 -6.1087873e-03 0.0000000e+00 
-1.2132309e-04 -6.2067639e-03 0.0000000e+00 
-4.7397057e-05 -6.2068459e-03 0.0000000e+00 
2.6527961e-05 -6.2069972e-03 0.0000000e+00 
1.0046441e-04 -6.2072227e-03 0.0000000e+00 