# vtk DataFile Version 4.0
vtk output
ASCII
DATASET UNSTRUCTURED_GRID
POINTS 604 float
5.5000000e+00 5.9700000e+00 0.0000000e+00 
5.5000000e+00 5.9900000e+00 0.0000000e+00 
5.5266667e+00 5.9700000e+00 0.0000000e+00 
5.5266667e+00 5.9900000e+00 0.0000000e+00 
5.5000000e+00 6.0100000e+00 0.0000000e+00 
5.5266667e+00 6.0100000e+00 0.0000000e+00 
5.5533333e+00 5.9700000e+00 0.0000000e+00 
5.5533333e+00 5.9900000e+00 0.0000000e+00 
5.5000000e+00 6.0300000e+00 0.0000000e+00 
5.5266667e+00 6.0300000e+00 0.0000000e+00 
5.5533333e+00 6.0100000e+00 0.0000000e+00 
5.5800000e+00 5.9700000e+00 0.0000000e+00 
5.5533333e+00 6.0300000e+00 0.0000000e+00 
5.5800000e+00 5.9900000e+00 0.0000000e+00 
5.5800000e+00 6.0100000e+00 0.0000000e+00 
5.5800000e+00 6.0300000e+00 0.0000000e+00 
5.6066667e+00 5.9700000e+00 0.0000000e+00 
5.6066667e+00 5.9900000e+00 0.0000000e+00 
5.6066667e+00 6.0100000e+00 0.0000000e+00 
5.6066667e+00 6.0300000e+00 0.0000000e+00 
5.6333333e+00 5.9700000e+00 0.0000000e+00 
5.6333333e+00 5.9900000e+00 0.0000000e+00 
5.6333333e+00 6.0100000e+00 0.0000000e+00 
5.6333333e+00 6.0300000e+00 0.0000000e+00 
5.6600000e+00 5.9700000e+00 0.0000000e+00 
5.6600000e+00 5.9900000e+00 0.0000000e+00 
5.6600000e+00 6.0100000e+00 0.0000000e+00 
5.6600000e+00 6.0300000e+00 0.0000000e+00 
5.6866667e+00 5.9700000e+00 0.0000000e+00 
5.6866667e+00 5.9900000e+00 0.0000000e+00 
5.6866667e+00 6.0100000e+00 0.0000000e+00 
5.6866667e+00 6.0300000e+00 0.0000000e+00 
5.7133333e+00 5.9700000e+00 0.0000000e+00 
5.7133333e+00 5.9900000e+00 0.0000000e+00 
5.7133333e+00 6.0100000e+00 0.0000000e+00 
5.7133333e+00 6.0300000e+00 0.0000000e+00 
5.7400000e+00 5.9700000e+00 0.0000000e+00 
5.7400000e+00 5.9900000e+00 0.0000000e+00 
5.7400000e+00 6.0100000e+00 0.0000000e+00 
5.7400000e+00 6.0300000e+00 0.0000000e+00 
5.7666667e+00 5.9700000e+00 0.0000000e+00 
5.7666667e+00 5.9900000e+00 0.0000000e+00 
5.7666667e+00 6.0100000e+00 0.0000000e+00 
5.7666667e+00 6.0300000e+00 0.0000000e+00 
5.7933333e+00 5.9700000e+00 0.0000000e+00 
5.7933333e+00 5.9900000e+00 0.0000000e+00 
5.7933333e+00 6.0100000e+00 0.0000000e+00 
5.7933333e+00 6.0300000e+00 0.0000000e+00 
5.8200000e+00 5.9700000e+00 0.0000000e+00 
5.8200000e+00 5.9900000e+00 0.0000000e+00 
5.8200000e+00 6.0100000e+00 0.0000000e+00 
5.8200000e+00 6.0300000e+00 0.0000000e+00 
5.8466667e+00 5.9700000e+00 0.0000000e+00 
5.8466667e+00 5.9900000e+00 0.0000000e+00 
5.8466667e+00 6.0100000e+00 0.0000000e+00 
5.8466667e+00 6.0300000e+00 0.0000000e+00 
5.8733333e+00 5.9700000e+00 0.0000000e+00 
5.8733333e+00 5.9900000e+00 0.0000000e+00 
5.8733333e+00 6.0100000e+00 0.0000000e+00 
5.8733333e+00 6.0300000e+00 0.0000000e+00 
5.9000000e+00 5.9700000e+00 0.0000000e+00 
5.9000000e+00 5.9900000e+00 0.0000000e+00 
5.9000000e+00 6.0100000e+00 0.0000000e+00 
5.9000000e+00 6.0300000e+00 0.0000000e+00 
5.9266667e+00 5.9700000e+00 0.0000000e+00 
5.9266667e+00 5.9900000e+00 0.0000000e+00 
5.9266667e+00 6.0100000e+00 0.0000000e+00 
5.9266667e+00 6.0300000e+00 0.0000000e+00 
5.9533333e+00 5.9700000e+00 0.0000000e+00 
5.9533333e+00 5.9900000e+00 0.0000000e+00 
5.9533333e+00 6.0100000e+00 0.0000000e+00 
5.9533333e+00 6.0300000e+00 0.0000000e+00 
5.9800000e+00 5.9700000e+00 0.0000000e+00 
5.9800000e+00 5.9900000e+00 0.0000000e+00 
5.9800000e+00 6.0100000e+00 0.0000000e+00 
5.9800000e+00 6.0300000e+00 0.0000000e+00 
6.0066667e+00 5.9700000e+00 0.0000000e+00 
6.0066667e+00 5.9900000e+00 0.0000000e+00 
6.0066667e+00 6.0100000e+00 0.0000000e+00 
6.0066667e+00 6.0300000e+00 0.0000000e+00 
6.0333333e+00 5.9700000e+00 0.0000000e+00 
6.0333333e+00 5.9900000e+00 0.0000000e+00 
6.0333333e+00 6.0100000e+00 0.0000000e+00 
6.0333333e+00 6.0300000e+00 0.0000000e+00 
6.0600000e+00 5.9700000e+00 0.0000000e+00 
6.0600000e+00 5.9900000e+00 0.0000000e+00 
6.0600000e+00 6.0100000e+00 0.0000000e+00 
6.0600000e+00 6.0300000e+00 0.0000000e+00 
6.0866667e+00 5.9700000e+00 0.0000000e+00 
6.0866667e+00 5.9900000e+00 0.0000000e+00 
6.0866667e+00 6.0100000e+00 0.0000000e+00 
6.0866667e+00 6.0300000e+00 0.0000000e+00 
6.1133333e+00 5.9700000e+00 0.0000000e+00 
6.1133333e+00 5.9900000e+00 0.0000000e+00 
6.1133333e+00 6.0100000e+00 0.0000000e+00 
6.1133333e+00 6.0300000e+00 0.0000000e+00 
6.1400000e+00 5.9700000e+00 0.0000000e+00 
6.1400000e+00 5.9900000e+00 0.0000000e+00 
6.1400000e+00 6.0100000e+00 0.0000000e+00 
6.1400000e+00 6.0300000e+00 0.0000000e+00 
6.1666667e+00 5.9700000e+00 0.0000000e+00 
6.1666667e+00 5.9900000e+00 0.0000000e+00 
6.1666667e+00 6.0100000e+00 0.0000000e+00 
6.1666667e+00 6.0300000e+00 0.0000000e+00 
6.1933333e+00 5.9700000e+00 0.0000000e+00 
6.1933333e+00 5.9900000e+00 0.0000000e+00 
6.1933333e+00 6.0100000e+00 0.0000000e+00 
6.1933333e+00 6.0300000e+00 0.0000000e+00 
6.2200000e+00 5.9700000e+00 0.0000000e+00 
6.2200000e+00 5.9900000e+00 0.0000000e+00 
6.2200000e+00 6.0100000e+00 0.0000000e+00 
6.2200000e+00 6.0300000e+00 0.0000000e+00 
6.2466667e+00 5.9700000e+00 0.0000000e+00 
6.2466667e+00 5.9900000e+00 0.0000000e+00 
6.2466667e+00 6.0100000e+00 0.0000000e+00 
6.2466667e+00 6.0300000e+00 0.0000000e+00 
6.2733333e+00 5.9700000e+00 0.0000000e+00 
6.2733333e+00 5.9900000e+00 0.0000000e+00 
6.2733333e+00 6.0100000e+00 0.0000000e+00 
6.2733333e+00 6.0300000e+00 0.0000000e+00 
6.3000000e+00 5.9700000e+00 0.0000000e+00 
6.3000000e+00 5.9900000e+00 0.0000000e+00 
6.3000000e+00 6.0100000e+00 0.0000000e+00 
6.3000000e+00 6.0300000e+00 0.0000000e+00 
6.3266667e+00 5.9700000e+00 0.0000000e+00 
6.3266667e+00 5.9900000e+00 0.0000000e+00 
6.3266667e+00 6.0100000e+00 0.0000000e+00 
6.3266667e+00 6.0300000e+00 0.0000000e+00 
6.3533333e+00 5.9700000e+00 0.0000000e+00 
6.3533333e+00 5.9900000e+00 0.0000000e+00 
6.3533333e+00 6.0100000e+00 0.0000000e+00 
6.3533333e+00 6.0300000e+00 0.0000000e+00 
6.3800000e+00 5.9700000e+00 0.0000000e+00 
6.3800000e+00 5.9900000e+00 0.0000000e+00 
6.3800000e+00 6.0100000e+00 0.0000000e+00 
6.3800000e+00 6.0300000e+00 0.0000000e+00 
6.4066667e+00 5.9700000e+00 0.0000000e+00 
6.4066667e+00 5.9900000e+00 0.0000000e+00 
6.4066667e+00 6.0100000e+00 0.0000000e+00 
6.4066667e+00 6.0300000e+00 0.0000000e+00 
6.4333333e+00 5.9700000e+00 0.0000000e+00 
6.4333333e+00 5.9900000e+00 0.0000000e+00 
6.4333333e+00 6.0100000e+00 0.0000000e+00 
6.4333333e+00 6.0300000e+00 0.0000000e+00 
6.4600000e+00 5.9700000e+00 0.0000000e+00 
6.4600000e+00 5.9900000e+00 0.0000000e+00 
6.4600000e+00 6.0100000e+00 0.0000000e+00 
6.4600000e+00 6.0300000e+00 0.0000000e+00 
6.4866667e+00 5.9700000e+00 0.0000000e+00 
6.4866667e+00 5.9900000e+00 0.0000000e+00 
6.4866667e+00 6.0100000e+00 0.0000000e+00 
6.4866667e+00 6.0300000e+00 0.0000000e+00 
6.5133333e+00 5.9700000e+00 0.0000000e+00 
6.5133333e+00 5.9900000e+00 0.0000000e+00 
6.5133333e+00 6.0100000e+00 0.0000000e+00 
6.5133333e+00 6.0300000e+00 0.0000000e+00 
6.5400000e+00 5.9700000e+00 0.0000000e+00 
6.5400000e+00 5.9900000e+00 0.0000000e+00 
6.5400000e+00 6.0100000e+00 0.0000000e+00 
6.5400000e+00 6.0300000e+00 0.0000000e+00 
6.5666667e+00 5.9700000e+00 0.0000000e+00 
6.5666667e+00 5.9900000e+00 0.0000000e+00 
6.5666667e+00 6.0100000e+00 0.0000000e+00 
6.5666667e+00 6.0300000e+00 0.0000000e+00 
6.5933333e+00 5.9700000e+00 0.0000000e+00 
6.5933333e+00 5.9900000e+00 0.0000000e+00 
6.5933333e+00 6.0100000e+00 0.0000000e+00 
6.5933333e+00 6.0300000e+00 0.0000000e+00 
6.6200000e+00 5.9700000e+00 0.0000000e+00 
6.6200000e+00 5.9900000e+00 0.0000000e+00 
6.6200000e+00 6.0100000e+00 0.0000000e+00 
6.6200000e+00 6.0300000e+00 0.0000000e+00 
6.6466667e+00 5.9700000e+00 0.0000000e+00 
6.6466667e+00 5.9900000e+00 0.0000000e+00 
6.6466667e+00 6.0100000e+00 0.0000000e+00 
6.6466667e+00 6.0300000e+00 0.0000000e+00 
6.6733333e+00 5.9700000e+00 0.0000000e+00 
6.6733333e+00 5.9900000e+00 0.0000000e+00 
6.6733333e+00 6.0100000e+00 0.0000000e+00 
6.6733333e+00 6.0300000e+00 0.0000000e+00 
6.7000000e+00 5.9700000e+00 0.0000000e+00 
6.7000000e+00 5.9900000e+00 0.0000000e+00 
6.7000000e+00 6.0100000e+00 0.0000000e+00 
6.7000000e+00 6.0300000e+00 0.0000000e+00 
6.7266667e+00 5.9700000e+00 0.0000000e+00 
6.7266667e+00 5.9900000e+00 0.0000000e+00 
6.7266667e+00 6.0100000e+00 0.0000000e+00 
6.7266667e+00 6.0300000e+00 0.0000000e+00 
6.7533333e+00 5.9700000e+00 0.0000000e+00 
6.7533333e+00 5.9900000e+00 0.0000000e+00 
6.7533333e+00 6.0100000e+00 0.0000000e+00 
6.7533333e+00 6.0300000e+00 0.0000000e+00 
6.7800000e+00 5.9700000e+00 0.0000000e+00 
6.7800000e+00 5.9900000e+00 0.0000000e+00 
6.7800000e+00 6.0100000e+00 0.0000000e+00 
6.7800000e+00 6.0300000e+00 0.0000000e+00 
6.8066667e+00 5.9700000e+00 0.0000000e+00 
6.8066667e+00 5.9900000e+00 0.0000000e+00 
6.8066667e+00 6.0100000e+00 0.0000000e+00 
6.8066667e+00 6.0300000e+00 0.0000000e+00 
6.8333333e+00 5.9700000e+00 0.0000000e+00 
6.8333333e+00 5.9900000e+00 0.0000000e+00 
6.8333333e+00 6.0100000e+00 0.0000000e+00 
6.8333333e+00 6.0300000e+00 0.0000000e+00 
6.8600000e+00 5.9700000e+00 0.0000000e+00 
6.8600000e+00 5.9900000e+00 0.0000000e+00 
6.8600000e+00 6.0100000e+00 0.0000000e+00 
6.8600000e+00 6.0300000e+00 0.0000000e+00 
6.8866667e+00 5.9700000e+00 0.0000000e+00 
6.8866667e+00 5.9900000e+00 0.0000000e+00 
6.8866667e+00 6.0100000e+00 0.0000000e+00 
6.8866667e+00 6.0300000e+00 0.0000000e+00 
6.9133333e+00 5.9700000e+00 0.0000000e+00 
6.9133333e+00 5.9900000e+00 0.0000000e+00 
6.9133333e+00 6.0100000e+00 0.0000000e+00 
6.9133333e+00 6.0300000e+00 0.0000000e+00 
6.9400000e+00 5.9700000e+00 0.0000000e+00 
6.9400000e+00 5.9900000e+00 0.0000000e+00 
6.9400000e+00 6.0100000e+00 0.0000000e+00 
6.9400000e+00 6.0300000e+00 0.0000000e+00 
6.9666667e+00 5.9700000e+00 0.0000000e+00 
6.9666667e+00 5.9900000e+00 0.0000000e+00 
6.9666667e+00 6.0100000e+00 0.0000000e+00 
6.9666667e+00 6.0300000e+00 0.0000000e+00 
6.9933333e+00 5.9700000e+00 0.0000000e+00 
6.9933333e+00 5.9900000e+00 0.0000000e+00 
6.9933333e+00 6.0100000e+00 0.0000000e+00 
6.9933333e+00 6.0300000e+00 0.0000000e+00 
7.0200000e+00 5.9700000e+00 0.0000000e+00 
7.0200000e+00 5.9900000e+00 0.0000000e+00 
[...]
POINT_DATA 604
FIELD FieldData 2
DISPLACEMENT 3 604  float
0.0000000e+00 0.0000000e+00 0.0000000e+00 
0.0000000e+00 0.0000000e+00 0.0000000e+00 
1.2746344e-04 7.7976457e-05 0.0000000e+00 
4.0190972e-05 5.0937722e-05 0.0000000e+00 
0.0000000e+00 0.0000000e+00 0.0000000e+00 
-4.0960779e-05 5.0687779e-05 0.0000000e+00 
2.5596616e-04 2.4975911e-04 0.0000000e+00 
8.4442866e-05 2.2698140e-04 0.0000000e+00 
0.0000000e+00 0.0000000e+00 0.0000000e+00 
-1.2840224e-04 7.7283133e-05 0.0000000e+00 
-8.6964901e-05 2.2616178e-04 0.0000000e+00 
3.8120384e-04 5.3935848e-04 0.0000000e+00 
-2.5886916e-04 2.4742609e-04 0.0000000e+00 
1.2468642e-04 5.1559529e-04 0.0000000e+00 
-1.3089022e-04 5.1386712e-04 0.0000000e+00 
-3.8799565e-04 5.3422477e-04 0.0000000e+00 
5.0236374e-04 9.4087873e-04 0.0000000e+00 
1.6295438e-04 9.1640077e-04 0.0000000e+00 
-1.7571844e-04 9.1346190e-04 0.0000000e+00 
-5.1587883e-04 9.3215114e-04 0.0000000e+00 
6.1912616e-04 1.4524737e-03 0.0000000e+00 
1.9847945e-04 1.4268698e-03 0.0000000e+00 
-2.2151342e-04 1.4223715e-03 0.0000000e+00 
-6.4307204e-04 1.4390061e-03 0.0000000e+00 
7.3111084e-04 2.0717226e-03 0.0000000e+00 
2.3091001e-04 2.0447466e-03 0.0000000e+00 
-2.6872251e-04 2.0384487e-03 0.0000000e+00 
-7.6999267e-04 2.0528724e-03 0.0000000e+00 
8.3798049e-04 2.7964275e-03 0.0000000e+00 
2.5987219e-04 2.7677826e-03 0.0000000e+00 
-3.1775116e-04 2.7593870e-03 0.0000000e+00 
-8.9702675e-04 2.7712771e-03 0.0000000e+00 
9.3942237e-04 3.6243665e-03 0.0000000e+00 
2.8505348e-04 3.5937702e-03 0.0000000e+00 
-3.6890943e-04 3.5829989e-03 0.0000000e+00 
-1.0245897e-03 3.5920434e-03 0.0000000e+00 
1.0351619e-03 4.5532760e-03 0.0000000e+00 
3.0613178e-04 4.5205395e-03 0.0000000e+00 
-4.2256269e-04 4.5072084e-03 0.0000000e+00 
-1.1530227e-03 4.5133186e-03 0.0000000e+00 
1.1249115e-03 5.5811033e-03 0.0000000e+00 
3.2281691e-04 5.5459556e-03 0.0000000e+00 
-4.7901155e-04 5.5298090e-03 0.0000000e+00 
-1.2826470e-03 5.5326252e-03 0.0000000e+00 
1.2084347e-03 6.7055934e-03 0.0000000e+00 
3.3484090e-04 6.6678844e-03 0.0000000e+00 
-5.3854458e-04 6.6487612e-03 0.0000000e+00 
-1.4137753e-03 6.6482418e-03 0.0000000e+00 
1.2854877e-03 7.9247493e-03 0.0000000e+00 
3.4196027e-04 7.8842353e-03 0.0000000e+00 
-6.0142067e-04 7.8619134e-03 0.0000000e+00 
-1.5466797e-03 7.8577250e-03 0.0000000e+00 
1.3558808e-03 9.2363544e-03 0.0000000e+00 
3.4394861e-04 9.1929216e-03 0.0000000e+00 
-6.6788692e-04 9.1672731e-03 0.0000000e+00 
-1.6816314e-03 9.1594103e-03 0.0000000e+00 
1.4194103e-03 1.0638473e-02 0.0000000e+00 
3.4060349e-04 1.0591903e-02 0.0000000e+00 
-7.3816077e-04 1.0562734e-02 0.0000000e+00 
-1.8188584e-03 1.0550890e-02 0.0000000e+00 
1.4759270e-03 1.2128927e-02 0.0000000e+00 
3.3173832e-04 1.2079140e-02 0.0000000e+00 
-8.1245026e-04 1.2046354e-02 0.0000000e+00 
-1.9585964e-03 1.2030555e-02 0.0000000e+00 
1.5252644e-03 1.3705842e-02 0.0000000e+00 
3.1718835e-04 1.3652643e-02 0.0000000e+00 
-8.9093456e-04 1.3616072e-02 0.0000000e+00 
-2.1010316e-03 1.3596036e-02 0.0000000e+00 
1.5673108e-03 1.5367079e-02 0.0000000e+00 
2.9680381e-04 1.5310419e-02 0.0000000e+00 
-9.7378570e-04 1.5269994e-02 0.0000000e+00 
-2.2463675e-03 1.5245778e-02 0.0000000e+00 
1.6019340e-03 1.7110824e-02 0.0000000e+00 
2.7045437e-04 1.7050529e-02 0.0000000e+00 
-1.0611478e-03 1.7006107e-02 0.0000000e+00 
-2.3947513e-03 1.6977451e-02 0.0000000e+00 
1.6290561e-03 1.8934981e-02 0.0000000e+00 
2.3802427e-04 1.8871029e-02 0.0000000e+00 
-1.1531596e-03 1.8822567e-02 0.0000000e+00 
-2.5463572e-03 1.8789554e-02 0.0000000e+00 
1.6485748e-03 2.0837790e-02 0.0000000e+00 
1.9941609e-04 2.0770031e-02 0.0000000e+00 
-1.2499319e-03 2.0717405e-02 0.0000000e+00 
-2.7012989e-03 2.0679799e-02 0.0000000e+00 
1.6604415e-03 2.2817197e-02 0.0000000e+00 
1.5454436e-04 2.2745631e-02 0.0000000e+00 
-1.3515719e-03 2.2688837e-02 0.0000000e+00 
-2.8597260e-03 2.2646735e-02 0.0000000e+00 
1.6646073e-03 2.4871454e-02 0.0000000e+00 
1.0332671e-04 2.4795982e-02 0.0000000e+00 
-1.4581970e-03 2.4734928e-02 0.0000000e+00 
-3.0217144e-03 2.4688212e-02 0.0000000e+00 
1.6610382e-03 2.6998736e-02 0.0000000e+00 
4.5739631e-05 2.6919272e-02 0.0000000e+00 
-1.5698289e-03 2.6853878e-02 0.0000000e+00 
-3.1874031e-03 2.6802427e-02 0.0000000e+00 
1.6497327e-03 2.9197137e-02 0.0000000e+00 
-1.8274871e-05 2.9113710e-02 0.0000000e+00 
-1.6865741e-03 2.9044000e-02 0.0000000e+00 
-3.3568829e-03 2.8987944e-02 0.0000000e+00 
1.6306552e-03 3.1465058e-02 0.0000000e+00 
-8.8753480e-05 3.1377563e-02 0.0000000e+00 
-1.8084742e-03 3.1303462e-02 0.0000000e+00 
-3.5301921e-03 3.1242609e-02 0.0000000e+00 
1.6038178e-03 3.3800597e-02 0.0000000e+00 
-1.6571576e-04 3.3709083e-02 0.0000000e+00 
-1.9355743e-03 3.3630615e-02 0.0000000e+00 
-3.7074284e-03 3.3565121e-02 0.0000000e+00 
1.5692094e-03 3.6202198e-02 0.0000000e+00 
-2.4917350e-04 3.6106576e-02 0.0000000e+00 
-2.0678978e-03 3.6023686e-02 0.0000000e+00 
-3.8886006e-03 3.5953374e-02 0.0000000e+00 
1.5268662e-03 3.8668011e-02 0.0000000e+00 
-3.3912637e-04 3.8568345e-02 0.0000000e+00 
-2.2054694e-03 3.8481073e-02 0.0000000e+00 
-4.0737863e-03 3.8406113e-02 0.0000000e+00 
1.4767969e-03 4.1196529e-02 0.0000000e+00 
-4.3556610e-04 4.1092746e-02 0.0000000e+00 
-2.3482922e-03 4.1001051e-02 0.0000000e+00 
-4.2629707e-03 4.0921284e-02 0.0000000e+00 
1.4190571e-03 4.3785953e-02 0.0000000e+00 
-5.3847300e-04 4.3678130e-02 0.0000000e+00 
-2.4963716e-03 4.3582066e-02 0.0000000e+00 
-4.4562149e-03 4.3497675e-02 0.0000000e+00 
1.3536733e-03 4.6434823e-02 0.0000000e+00 
-6.4782069e-04 4.6322902e-02 0.0000000e+00 
-2.6496924e-03 4.6222443e-02 0.0000000e+00 
-4.6534833e-03 4.6133282e-02 0.0000000e+00 
1.2807183e-03 4.9141393e-02 0.0000000e+00 
-7.6357232e-04 4.9025461e-02 0.0000000e+00 
-2.8082427e-03 4.8920673e-02 0.0000000e+00 
-4.8548222e-03 4.8826935e-02 0.0000000e+00 
1.2002345e-03 5.1904248e-02 0.0000000e+00 
-8.8568539e-04 5.1784261e-02 0.0000000e+00 
-2.9719913e-03 5.1675130e-02 0.0000000e+00 
-5.0601772e-03 5.1576685e-02 0.0000000e+00 
1.1123104e-03 5.4721699e-02 0.0000000e+00 
-1.0141079e-03 5.4597752e-02 0.0000000e+00 
-3.1409107e-03 5.4484353e-02 0.0000000e+00 
-5.2695812e-03 5.4381402e-02 0.0000000e+00 
1.0170000e-03 5.7592370e-02 0.0000000e+00 
-1.1487816e-03 5.7464435e-02 0.0000000e+00 
-3.3149546e-03 5.7346763e-02 0.0000000e+00 
-5.4829654e-03 5.7239191e-02 0.0000000e+00 
9.1440442e-04 6.0514624e-02 0.0000000e+00 
-1.2896417e-03 6.0382801e-02 0.0000000e+00 
-3.4940810e-03 6.0260955e-02 0.0000000e+00 
-5.7003527e-03 6.0148959e-02 0.0000000e+00 
8.0461374e-04 6.3487095e-02 0.0000000e+00 
-1.4366282e-03 6.3351391e-02 0.0000000e+00 
-3.6782627e-03 6.3225386e-02 0.0000000e+00 
-5.9216625e-03 6.3108953e-02 0.0000000e+00 
6.8772684e-04 6.6508347e-02 0.0000000e+00 
-1.5896369e-03 6.6368782e-02 0.0000000e+00 
-3.8673937e-03 6.6238638e-02 0.0000000e+00 
-6.1468991e-03 6.6117754e-02 0.0000000e+00 
5.6386448e-04 6.9576901e-02 0.0000000e+00 
-1.7485999e-03 6.9433578e-02 0.0000000e+00 
-4.0614543e-03 6.9299403e-02 0.0000000e+00 
-6.3760431e-03 6.9174269e-02 0.0000000e+00 
4.3310435e-04 7.2691509e-02 0.0000000e+00 
-1.9134375e-03 7.2544427e-02 0.0000000e+00 
-4.2603688e-03 7.2406237e-02 0.0000000e+00 
-6.6089965e-03 7.2276767e-02 0.0000000e+00 
2.9557094e-04 7.5850704e-02 0.0000000e+00 
-2.0840604e-03 7.5699973e-02 0.0000000e+00 
-4.4640718e-03 7.5557865e-02 0.0000000e+00 
-6.8457626e-03 7.5424273e-02 0.0000000e+00 
1.5135098e-04 7.9053277e-02 0.0000000e+00 
-2.2603772e-03 7.8898902e-02 0.0000000e+00 
-4.6724841e-03 7.8752903e-02 0.0000000e+00 
-7.0862307e-03 7.8615109e-02 0.0000000e+00 
5.7981900e-07 8.2297812e-02 0.0000000e+00 
-2.4422928e-03 8.2139906e-02 0.0000000e+00 
-4.8855330e-03 8.1990119e-02 0.0000000e+00 
-7.3303950e-03 8.1848340e-02 0.0000000e+00 
-1.5665025e-04 8.5583140e-02 0.0000000e+00 
-2.6297086e-03 8.5421719e-02 0.0000000e+00 
-5.1031322e-03 8.5268175e-02 0.0000000e+00 
-7.5781366e-03 8.5122340e-02 0.0000000e+00 
-3.2019663e-04 8.8907902e-02 0.0000000e+00 
-2.8225235e-03 8.8743079e-02 0.0000000e+00 
-5.3252026e-03 8.8585885e-02 0.0000000e+00 
-7.8294440e-03 8.8436212e-02 0.0000000e+00 
-4.8996265e-04 9.2270967e-02 0.0000000e+00 
-3.0206327e-03 9.2102764e-02 0.0000000e+00 
-5.5516520e-03 9.1941958e-02 0.0000000e+00 
-8.0841913e-03 9.1788383e-02 0.0000000e+00 
-6.6579953e-04 9.5671028e-02 0.0000000e+00 
-3.2239303e-03 9.5499560e-02 0.0000000e+00 
-5.7823957e-03 9.5335252e-02 0.0000000e+00 
-8.3423621e-03 9.5177992e-02 0.0000000e+00 
-8.4760743e-04 9.9106996e-02 0.0000000e+00 
-3.4323065e-03 9.8932291e-02 0.0000000e+00 
-6.0173369e-03 9.8764521e-02 0.0000000e+00 
-8.6038249e-03 9.8603521e-02 0.0000000e+00 
-1.0352324e-03 1.0257761e-01 0.0000000e+00 
-3.6456519e-03 1.0239979e-01 0.0000000e+00 
-6.2563865e-03 1.0222867e-01 0.0000000e+00 
-8.8685592e-03 1.0206414e-01 0.0000000e+00 
-1.2285742e-03 1.0608183e-01 0.0000000e+00 
-3.8638518e-03 1.0590092e-01 0.0000000e+00 
-6.4994433e-03 1.0572649e-01 0.0000000e+00 
-9.1364309e-03 1.0555839e-01 0.0000000e+00 
-1.4274755e-03 1.0961844e-01 0.0000000e+00 
-4.0867943e-03 1.0943455e-01 0.0000000e+00 
-6.7464145e-03 1.0925694e-01 0.0000000e+00 
-9.4074169e-03 1.0908548e-01 0.0000000e+00 
-1.6318122e-03 1.1318641e-01 0.0000000e+00 
-4.3143696e-03 1.1299960e-01 0.0000000e+00 
-6.9972221e-03 1.1281886e-01 0.0000000e+00 
-9.6813879e-03 1.1264406e-01 0.0000000e+00 
-1.8414450e-03 1.1678467e-01 0.0000000e+00 
-4.5464413e-03 1.1659500e-01 0.0000000e+00 
-7.2517275e-03 1.1641118e-01 0.0000000e+00 
-9.9583010e-03 1.1623308e-01 0.0000000e+00 
-2.0562150e-03 1.2041215e-01 0.0000000e+00 
-4.7829051e-03 1.2021972e-01 0.0000000e+00 
-7.5098699e-03 1.2003296e-01 0.0000000e+00 
-1.0238104e-02 1.1985174e-01 0.0000000e+00 
-2.2760249e-03 1.2406793e-01 0.0000000e+00 
-5.0236473e-03 1.2387278e-01 0.0000000e+00 
-7.7715418e-03 1.2368311e-01 0.0000000e+00 
-1.0520662e-02 1.2349875e-01 0.0000000e+00 
-2.5007148e-03 1.2775093e-01 0.0000000e+00 
-5.2685557e-03 1.2755318e-01 0.0000000e+00 
-8.0366492e-03 1.2736071e-01 0.0000000e+00 
-1.0805949e-02 1.2717341e-01 0.0000000e+00 
-2.7301874e-03 1.3146027e-01 0.0000000e+00 
-5.5175129e-03 1.3125996e-01 0.0000000e+00 
-8.3050890e-03 1.3106474e-01 0.0000000e+00 
-1.1093828e-02 1.3087446e-01 0.0000000e+00 
-2.9642798e-03 1.3519494e-01 0.0000000e+00 
-5.7704082e-03 1.3499218e-01 0.0000000e+00 
-8.5767671e-03 1.3479432e-01 0.0000000e+00 
-1.1384271e-02 1.3460127e-01 0.0000000e+00 
-3.2028968e-03 1.3895407e-01 0.0000000e+00 
-6.0271243e-03 1.3874890e-01 0.0000000e+00 
-8.8515807e-03 1.3854846e-01 0.0000000e+00 
-1.1677138e-02 1.3835260e-01 0.0000000e+00 
-3.4458750e-03 1.4273671e-01 0.0000000e+00 
-6.2875513e-03 1.4252924e-01 0.0000000e+00 
-9.1294360e-03 1.4232631e-01 0.0000000e+00 
-1.1972404e-02 1.4212784e-01 0.0000000e+00 
-3.6931219e-03 1.4654203e-01 0.0000000e+00 
-6.5515726e-03 1.4633230e-01 0.0000000e+00 
-9.4102306e-03 1.4612694e-01 0.0000000e+00 
-1.2269928e-02 1.4592583e-01 0.0000000e+00 
-3.9444741e-03 1.5036911e-01 0.0000000e+00 
-6.8190797e-03 1.5015722e-01 0.0000000e+00 
-9.6938716e-03 1.4994955e-01 0.0000000e+00 
-1.2569686e-02 1.4974599e-01 0.0000000e+00 
-4.1998420e-03 1.5421717e-01 0.0000000e+00 
-7.0899571e-03 1.5400317e-01 0.0000000e+00 
-9.9802579e-03 1.5379322e-01 0.0000000e+00 
-1.2871537e-02 1.5358719e-01 0.0000000e+00 
-4.4590630e-03 1.5808532e-01 0.0000000e+00 
-7.3640982e-03 1.5786932e-01 0.0000000e+00 
-1.0269298e-02 1.5765720e-01 0.0000000e+00 
-1.3175460e-02 1.5744889e-01 0.0000000e+00 
-4.7220523e-03 1.6197283e-01 0.0000000e+00 
-7.6413884e-03 1.6175486e-01 0.0000000e+00 
-1.0560891e-02 1.6154063e-01 0.0000000e+00 
-1.3481314e-02 1.6133000e-01 0.0000000e+00 
-4.9886490e-03 1.6587884e-01 0.0000000e+00 
-7.9217232e-03 1.6565901e-01 0.0000000e+00 
-1.0854947e-02 1.6544277e-01 0.0000000e+00 
-1.3789081e-02 1.6523001e-01 0.0000000e+00 
-5.2587486e-03 1.6980265e-01 0.0000000e+00 
-8.2049981e-03 1.6958100e-01 0.0000000e+00 
-1.1151392e-02 1.6936280e-01 0.0000000e+00 
-1.4098634e-02 1.6914795e-01 0.0000000e+00 
-5.5322235e-03 1.7374350e-01 0.0000000e+00 
-8.4910893e-03 1.7352010e-01 0.0000000e+00 
-1.1450098e-02 1.7330000e-01 0.0000000e+00 
-1.4409929e-02 1.7308307e-01 0.0000000e+00 
-5.8089224e-03 1.7770067e-01 0.0000000e+00 
-8.7799041e-03 1.7747560e-01 0.0000000e+00 
-1.1751010e-02 1.7725370e-01 0.0000000e+00 
-1.4722928e-02 1.7703488e-01 0.0000000e+00 
-6.0887740e-03 1.8167352e-01 0.0000000e+00 
-9.0713408e-03 1.8144683e-01 0.0000000e+00 
-1.2054035e-02 1.8122317e-01 0.0000000e+00 
-1.5037497e-02 1.8100243e-01 0.0000000e+00 
-6.3716264e-03 1.8566133e-01 0.0000000e+00 
-9.3653045e-03 1.8543311e-01 0.0000000e+00 
-1.2359088e-02 1.8520779e-01 0.0000000e+00 
-1.5353630e-02 1.8498530e-01 0.0000000e+00 
-6.6574112e-03 1.8966351e-01 0.0000000e+00 
-9.6616935e-03 1.8943380e-01 0.0000000e+00 
-1.2666085e-02 1.8920685e-01 0.0000000e+00 
-1.5671192e-02 1.8898257e-01 0.0000000e+00 
-6.9459780e-03 1.9367937e-01 0.0000000e+00 
-9.9604176e-03 1.9344824e-01 0.0000000e+00 
-1.2974945e-02 1.9321977e-01 0.0000000e+00 
-1.5990179e-02 1.9299388e-01 0.0000000e+00 
-7.2372625e-03 1.9770833e-01 0.0000000e+00 
-1.0261378e-02 1.9747584e-01 0.0000000e+00 
-1.3285586e-02 1.9724588e-01 0.0000000e+00 
-1.6310459e-02 1.9701833e-01 0.0000000e+00 
-7.5311177e-03 2.0174976e-01 0.0000000e+00 
-1.0564489e-02 2.0151598e-01 0.0000000e+00 
-1.3597931e-02 2.0128462e-01 0.0000000e+00 
-1.6632029e-02 2.0105560e-01 0.0000000e+00 
-7.8274838e-03 2.0580313e-01 0.0000000e+00 
-1.0869654e-02 2.0556810e-01 0.0000000e+00 
-1.3911901e-02 2.0533536e-01 0.0000000e+00 
-1.6954763e-02 2.0510483e-01 0.0000000e+00 
-8.1262171e-03 2.0986781e-01 0.0000000e+00 
-1.1176791e-02 2.0963160e-01 0.0000000e+00 
-1.4227422e-02 2.0939759e-01 0.0000000e+00 
-1.7278659e-02 2.0916571e-01 0.0000000e+00 
-8.4272623e-03 2.1394330e-01 0.0000000e+00 
-1.1485809e-02 2.1370596e-01 0.0000000e+00 
-1.4544418e-02 2.1347071e-01 0.0000000e+00 
-1.7603594e-02 2.1323744e-01 0.0000000e+00 
-8.7304792e-03 2.1802904e-01 0.0000000e+00 
-1.1796629e-02 2.1779064e-01 0.0000000e+00 
-1.4862819e-02 2.1755422e-01 0.0000000e+00 
-1.7929571e-02 2.1731972e-01 0.0000000e+00 
-9.0358185e-03 2.2212454e-01 0.0000000e+00 
-1.2109161e-02 2.2188511e-01 0.0000000e+00 
-1.5182554e-02 2.2164756e-01 0.0000000e+00 
-1.8256470e-02 2.2141180e-01 0.0000000e+00 
-9.3431443e-03 2.2622927e-01 0.0000000e+00 
-1.2423332e-02 2.2598888e-01 0.0000000e+00 
-1.5503555e-02 2.2575029e-01 0.0000000e+00 
-1.8584297e-02 2.2551341e-01 0.0000000e+00 
-9.6523896e-03 2.3034276e-01 0.0000000e+00 
-1.2739064e-02 2.3010146e-01 0.0000000e+00 
-1.5825771e-02 2.2986185e-01 0.0000000e+00 
-1.8912948e-02 2.2962388e-01 0.0000000e+00 
-9.9634578e-03 2.3446457e-01 0.0000000e+00 
-1.3056265e-02 2.3422238e-01 0.0000000e+00 
-1.6149110e-02 2.3398180e-01 0.0000000e+00 
-1.9242403e-02 2.3374274e-01 0.0000000e+00 
-1.0276229e-02 2.3859423e-01 0.0000000e+00 
-1.3374873e-02 2.3835123e-01 0.0000000e+00 
-1.6473538e-02 2.3810974e-01 0.0000000e+00 
-1.9572650e-02 2.3786974e-01 0.0000000e+00 
-1.0590668e-02 2.4273138e-01 0.0000000e+00 
-1.3694815e-02 2.4248758e-01 0.0000000e+00 
-1.6798993e-02 2.4224522e-01 0.0000000e+00 
-1.9903580e-02 2.4200422e-01 0.0000000e+00 
-1.0906653e-02 2.4687556e-01 0.0000000e+00 
-1.4016030e-02 2.4663103e-01 0.0000000e+00 
-1.7125419e-02 2.4638786e-01 0.0000000e+00 
-2.0235215e-02 2.4614601e-01 0.0000000e+00 
-1.1224154e-02 2.5102643e-01 0.0000000e+00 
-1.4338446e-02 2.5078119e-01 0.0000000e+00 
-1.7452760e-02 2.5053724e-01 0.0000000e+00 
-2.0567446e-02 2.5029449e-01 0.0000000e+00 
-1.1543051e-02 2.5518358e-01 0.0000000e+00 
-1.4662007e-02 2.5493769e-01 0.0000000e+00 
-1.7780966e-02 2.5469301e-01 0.0000000e+00 
-2.0900296e-02 2.5444951e-01 0.0000000e+00 
-1.1863319e-02 2.5934668e-01 0.0000000e+00 
-1.4986645e-02 2.5910015e-01 0.0000000e+00 
-1.8109985e-02 2.5885477e-01 0.0000000e+00 
-2.1233661e-02 2.5861047e-01 0.0000000e+00 
-1.2184842e-02 2.6351535e-01 0.0000000e+00 
-1.5312308e-02 2.6326825e-01 0.0000000e+00 
-1.8439769e-02 2.6302222e-01 0.0000000e+00 
-2.1567567e-02 2.6277725e-01 0.0000000e+00 
-1.2507599e-02 2.6768929e-01 0.0000000e+00 
-1.5638932e-02 2.6744163e-01 0.0000000e+00 
-1.8770271e-02 2.6719498e-01 0.0000000e+00 
-2.1901914e-02 2.6694929e-01 0.0000000e+00 
-1.2831480e-02 2.7186815e-01 0.0000000e+00 
-1.5966469e-02 2.7161998e-01 0.0000000e+00 
-1.9101447e-02 2.7137277e-01 0.0000000e+00 
-2.2236730e-02 2.7112648e-01 0.0000000e+00 
-1.3156468e-02 2.7605165e-01 0.0000000e+00 
-1.6294860e-02 2.7580299e-01 0.0000000e+00 
-1.9433253e-02 2.7555523e-01 0.0000000e+00 
-2.2571918e-02 2.7530830e-01 0.0000000e+00 
-1.3482455e-02 2.8023948e-01 0.0000000e+00 
-1.6624060e-02 2.7999038e-01 0.0000000e+00 
-1.9765648e-02 2.7974211e-01 0.0000000e+00 
-2.2907510e-02 2.7949466e-01 0.0000000e+00 
-1.3809431e-02 2.8443137e-01 0.0000000e+00 
-1.6954013e-02 2.8418184e-01 0.0000000e+00 
-2.0098592e-02 2.8393309e-01 0.0000000e+00 
-2.3243415e-02 2.8368507e-01 0.0000000e+00 
-1.4137294e-02 2.8862704e-01 0.0000000e+00 
-1.7284678e-02 2.8837712e-01 0.0000000e+00 
-2.0432048e-02 2.8812795e-01 0.0000000e+00 
-2.3579665e-02 2.8787947e-01 0.0000000e+00 
-1.4466016e-02 2.9282624e-01 0.0000000e+00 
-1.7616010e-02 2.9257596e-01 0.0000000e+00 
-2.0765993e-02 2.9232637e-01 0.0000000e+00 
-2.3916186e-02 2.9207743e-01 0.0000000e+00 
-1.4795538e-02 2.9702874e-01 0.0000000e+00 
-1.7947954e-02 2.9677811e-01 0.0000000e+00 
-2.1100370e-02 2.9652811e-01 0.0000000e+00 
-2.4252980e-02 2.9627871e-01 0.0000000e+00 
-1.5125772e-02 3.0123432e-01 0.0000000e+00 
-1.8280479e-02 3.0098337e-01 0.0000000e+00 
-2.1435171e-02 3.0073302e-01 0.0000000e+00 
-2.4590063e-02 3.0048325e-01 0.0000000e+00 
-1.5456723e-02 3.0544279e-01 0.0000000e+00 
-1.8613543e-02 3.0519153e-01 0.0000000e+00 
-2.1770363e-02 3.0494083e-01 0.0000000e+00 
-2.4927354e-02 3.0469065e-01 0.0000000e+00 
-1.5788299e-02 3.0965393e-01 0.0000000e+00 
-1.8947119e-02 3.0940240e-01 0.0000000e+00 
-2.2105920e-02 3.0915140e-01 0.0000000e+00 
-2.5264899e-02 3.0890090e-01 0.0000000e+00 
-1.6120510e-02 3.1386760e-01 0.0000000e+00 
-1.9281164e-02 3.1361580e-01 0.0000000e+00 
-2.2441816e-02 3.1336449e-01 0.0000000e+00 
-2.5602618e-02 3.1311362e-01 0.0000000e+00 
-1.6453265e-02 3.1808358e-01 0.0000000e+00 
-1.9615656e-02 3.1783155e-01 0.0000000e+00 
-2.2778028e-02 3.1757998e-01 0.0000000e+00 
-2.5940557e-02 3.1732884e-01 0.0000000e+00 
-1.6786578e-02 3.2230175e-01 0.0000000e+00 
-1.9950556e-02 3.2204949e-01 0.0000000e+00 
-2.3114533e-02 3.2179765e-01 0.0000000e+00 
-2.6278638e-02 3.2154619e-01 0.0000000e+00 
-1.7120363e-02 3.2652193e-01 0.0000000e+00 
-2.0285845e-02 3.2626947e-01 0.0000000e+00 
-2.3451309e-02 3.2601739e-01 0.0000000e+00 
-2.6616912e-02 3.2576571e-01 0.0000000e+00 
-1.7454636e-02 3.3074400e-01 0.0000000e+00 
-2.0621488e-02 3.3049133e-01 0.0000000e+00 
-2.3788340e-02 3.3023903e-01 0.0000000e+00 
-2.6955302e-02 3.2998706e-01 0.0000000e+00 
-1.7789315e-02 3.3496780e-01 0.0000000e+00 
-2.0957468e-02 3.3471496e-01 0.0000000e+00 
-2.4125604e-02 3.3446246e-01 0.0000000e+00 
-2.7293861e-02 3.3421029e-01 0.0000000e+00 
-1.8124421e-02 3.3919323e-01 0.0000000e+00 
-2.1293754e-02 3.3894021e-01 0.0000000e+00 
-2.4463087e-02 3.3868751e-01 0.0000000e+00 
-2.7632515e-02 3.3843509e-01 0.0000000e+00 
-1.8459874e-02 3.4342015e-01 0.0000000e+00 
-2.1630331e-02 3.4316698e-01 0.0000000e+00 
-2.4800772e-02 3.4291411e-01 0.0000000e+00 
-2.7971319e-02 3.4266153e-01 0.0000000e+00 
-1.8795699e-02 3.4764848e-01 0.0000000e+00 
-2.1967171e-02 3.4739516e-01 0.0000000e+00 
-2.5138646e-02 3.4714212e-01 0.0000000e+00 
-2.8310202e-02 3.4688931e-01 0.0000000e+00 
-1.9131821e-02 3.5187809e-01 0.0000000e+00 
-2.2304261e-02 3.5162464e-01 0.0000000e+00 
-2.5476694e-02 3.5137146e-01 0.0000000e+00 
-2.8649220e-02 3.5111852e-01 0.0000000e+00 
-1.9468247e-02 3.5610891e-01 0.0000000e+00 
-2.2641585e-02 3.5585534e-01 0.0000000e+00 
-2.5814919e-02 3.5560201e-01 0.0000000e+00 
-2.8988318e-02 3.5534891e-01 0.0000000e+00 
-1.9804949e-02 3.6034087e-01 0.0000000e+00 
-2.2979112e-02 3.6008717e-01 0.0000000e+00 