# vtk DataFile Version 4.0
vtk output
ASCII
DATASET UNSTRUCTURED_GRID
POINTS 604 float
5.5000000e+00 5.9700000e+00 0.0000000e+00 
5.5000000e+00 5.9900000e+00 0.0000000e+00 
5.5266667e+00 5.9700000e+00 0.0000000e+00 
5.5266667e+00 5.9900000e+00 0.0000000e+00 
5.5000000e+00 6.0100000e+00 0.0000000e+00 
5.5266667e+00 6.0100000e+00 0.0000000e+00 
5.5533333e+00 5.9700000e+00 0.0000000e+00 
5.5533333e+00 5.9900000e+00 0.0000000e+00 
5.5000000e+00 6.0300000e+00 0.0000000e+00 
5.5266667e+00 6.0300000e+00 0.0000000e+00 
5.5533333e+00 6.0100000e+00 0.0000000e+00 
5.5800000e+00 5.9700000e+00 0.0000000e+00 
5.5533333e+00 6.0300000e+00 0.0000000e+00 
5.5800000e+00 5.9900000e+00 0.0000000e+00 
5.5800000e+00 6.0100000e+00 0.0000000e+00 
5.5800000e+00 6.0300000e+00 0.0000000e+00 
5.6066667e+00 5.9700000e+00 0.0000000e+00 
5.6066667e+00 5.9900000e+00 0.0000000e+00 
5.6066667e+00 6.0100000e+00 0.0000000e+00 
5.6066667e+00 6.0300000e+00 0.0000000e+00 
5.6333333e+00 5.9700000e+00 0.0000000e+00 
5.6333333e+00 5.9900000e+00 0.0000000e+00 
5.6333333e+00 6.0100000e+00 0.0000000e+00 
5.6333333e+00 6.0300000e+00 0.0000000e+00 
5.6600000e+00 5.9700000e+00 0.0000000e+00 
5.6600000e+00 5.9900000e+00 0.0000000e+00 
5.6600000e+00 6.0100000e+00 0.0000000e+00 
5.6600000e+00 6.0300000e+00 0.0000000e+00 
5.6866667e+00 5.9700000e+00 0.0000000e+00 
5.6866667e+00 5.9900000e+00 0.0000000e+00 
5.6866667e+00 6.0100000e+00 0.0000000e+00 
5.6866667e+00 6.0300000e+00 0.0000000e+00 
5.7133333e+00 5.9700000e+00 0.0000000e+00 
5.7133333e+00 5.9900000e+00 0.0000000e+00 
5.7133333e+00 6.0100000e+00 0.0000000e+00 
5.7133333e+00 6.0300000e+00 0.0000000e+00 
5.7400000e+00 5.9700000e+00 0.0000000e+00 
5.7400000e+00 5.9900000e+00 0.0000000e+00 
5.7400000e+00 6.0100000e+00 0.0000000e+00 
5.7400000e+00 6.0300000e+00 0.0000000e+00 
5.7666667e+00 5.9700000e+00 0.0000000e+00 
5.7666667e+00 5.9900000e+00 0.0000000e+00 
5.7666667e+00 6.0100000e+00 0.0000000e+00 
5.7666667e+00 6.0300000e+00 0.0000000e+00 
5.7933333e+00 5.9700000e+00 0.0000000e+00 
5.7933333e+00 5.9900000e+00 0.0000000e+00 
5.7933333e+00 6.0100000e+00 0.0000000e+00 
5.7933333e+00 6.0300000e+00 0.0000000e+00 
5.8200000e+00 5.9700000e+00 0.0000000e+00 
5.8200000e+00 5.9900000e+00 0.0000000e+00 
5.8200000e+00 6.0100000e+00 0.0000000e+00 
5.8200000e+00 6.0300000e+00 0.0000000e+00 
5.8466667e+00 5.9700000e+00 0.0000000e+00 
5.8466667e+00 5.9900000e+00 0.0000000e+00 
5.8466667e+00 6.0100000e+00 0.0000000e+00 
5.8466667e+00 6.0300000e+00 0.0000000e+00 
5.8733333e+00 5.9700000e+00 0.0000000e+00 
5.8733333e+00 5.9900000e+00 0.0000000e+00 
5.8733333e+00 6.0100000e+00 0.0000000e+00 
5.8733333e+00 6.0300000e+00 0.0000000e+00 
5.9000000e+00 5.9700000e+00 0.0000000e+00 
5.9000000e+00 5.9900000e+00 0.0000000e+00 
5.9000000e+00 6.0100000e+00 0.0000000e+00 
5.9000000e+00 6.0300000e+00 0.0000000e+00 
5.9266667e+00 5.9700000e+00 0.0000000e+00 
5.9266667e+00 5.9900000e+00 0.0000000e+00 
5.9266667e+00 6.0100000e+00 0.0000000e+00 
5.9266667e+00 6.0300000e+00 0.0000000e+00 
5.9533333e+00 5.9700000e+00 0.0000000e+00 
5.9533333e+00 5.9900000e+00 0.0000000e+00 
5.9533333e+00 6.0100000e+00 0.0000000e+00 
5.9533333e+00 6.0300000e+00 0.0000000e+00 
5.9800000e+00 5.9700000e+00 0.0000000e+00 
5.9800000e+00 5.9900000e+00 0.0000000e+00 
5.9800000e+00 6.0100000e+00 0.0000000e+00 
5.9800000e+00 6.0300000e+00 0.0000000e+00 
6.0066667e+00 5.9700000e+00 0.0000000e+00 
6.0066667e+00 5.9900000e+00 0.0000000e+00 
6.0066667e+00 6.0100000e+00 0.0000000e+00 
6.0066667e+00 6.0300000e+00 0.0000000e+00 
6.0333333e+00 5.9700000e+00 0.0000000e+00 
6.0333333e+00 5.9900000e+00 0.0000000e+00 
6.0333333e+00 6.0100000e+00 0.0000000e+00 
6.0333333e+00 6.0300000e+00 0.0000000e+00 
6.0600000e+00 5.9700000e+00 0.0000000e+00 
6.0600000e+00 5.9900000e+00 0.0000000e+00 
6.0600000e+00 6.0100000e+00 0.0000000e+00 
6.0600000e+00 6.0300000e+00 0.0000000e+00 
6.0866667e+00 5.9700000e+00 0.0000000e+00 
6.0866667e+00 5.9900000e+00 0.0000000e+00 
6.0866667e+00 6.0100000e+00 0.0000000e+00 
6.0866667e+00 6.0300000e+00 0.0000000e+00 
6.1133333e+00 5.9700000e+00 0.0000000e+00 
6.1133333e+00 5.9900000e+00 0.0000000e+00 
6.1133333e+00 6.0100000e+00 0.0000000e+00 
6.1133333e+00 6.0300000e+00 0.0000000e+00 
6.1400000e+00 5.9700000e+00 0.0000000e+00 
6.1400000e+00 5.9900000e+00 0.0000000e+00 
6.1400000e+00 6.0100000e+00 0.0000000e+00 
6.1400000e+00 6.0300000e+00 0.0000000e+00 
6.1666667e+00 5.9700000e+00 0.0000000e+00 
6.1666667e+00 5.9900000e+00 0.0000000e+00 
6.1666667e+00 6.0100000e+00 0.0000000e+00 
6.1666667e+00 6.0300000e+00 0.0000000e+00 
6.1933333e+00 5.9700000e+00 0.0000000e+00 
6.1933333e+00 5.9900000e+00 0.0000000e+00 
6.1933333e+00 6.0100000e+00 0.0000000e+00 
6.1933333e+00 6.0300000e+00 0.0000000e+00 
6.2200000e+00 5.9700000e+00 0.0000000e+00 
6.2200000e+00 5.9900000e+00 0.0000000e+00 
6.2200000e+00 6.0100000e+00 0.0000000e+00 
6.2200000e+00 6.0300000e+00 0.0000000e+00 
6.2466667e+00 5.9700000e+00 0.0000000e+00 
6.2466667e+00 5.9900000e+00 0.0000000e+00 
6.2466667e+00 6.0100000e+00 0.0000000e+00 
6.2466667e+00 6.0300000e+00 0.0000000e+00 
6.2733333e+00 5.9700000e+00 0.0000000e+00 
6.2733333e+00 5.9900000e+00 0.0000000e+00 
6.2733333e+00 6.0100000e+00 0.0000000e+00 
6.2733333e+00 6.0300000e+00 0.0000000e+00 
6.3000000e+00 5.9700000e+00 0.0000000e+00 
6.3000000e+00 5.9900000e+00 0.0000000e+00 
6.3000000e+00 6.0100000e+00 0.0000000e+00 
6.3000000e+00 6.0300000e+00 0.0000000e+00 
6.3266667e+00 5.9700000e+00 0.0000000e+00 
6.3266667e+00 5.9900000e+00 0.0000000e+00 
6.3266667e+00 6.0100000e+00 0.0000000e+00 
6.3266667e+00 6.0300000e+00 0.0000000e+00 
6.3533333e+00 5.9700000e+00 0.0000000e+00 
6.3533333e+00 5.9900000e+00 0.0000000e+00 
6.3533333e+00 6.0100000e+00 0.0000000e+00 
6.3533333e+00 6.0300000e+00 0.0000000e+00 
6.3800000e+00 5.9700000e+00 0.0000000e+00 
6.3800000e+00 5.9900000e+00 0.0000000e+00 
6.3800000e+00 6.0100000e+00 0.0000000e+00 
6.3800000e+00 6.0300000e+00 0.0000000e+00 
6.4066667e+00 5.9700000e+00 0.0000000e+00 
6.4066667e+00 5.9900000e+00 0.0000000e+00 
6.4066667e+00 6.0100000e+00 0.0000000e+00 
6.4066667e+00 6.0300000e+00 0.0000000e+00 
6.4333333e+00 5.9700000e+00 0.0000000e+00 
6.4333333e+00 5.9900000e+00 0.0000000e+00 
6.4333333e+00 6.0100000e+00 0.0000000e+00 
6.4333333e+00 6.0300000e+00 0.0000000e+00 
6.4600000e+00 5.9700000e+00 0.0000000e+00 
6.4600000e+00 5.9900000e+00 0.0000000e+00 
6.4600000e+00 6.0100000e+00 0.0000000e+00 
6.4600000e+00 6.0300000e+00 0.0000000e+00 
6.4866667e+00 5.9700000e+00 0.0000000e+00 
6.4866667e+00 5.9900000e+00 0.0000000e+00 
6.4866667e+00 6.0100000e+00 0.0000000e+00 
6.4866667e+00 6.0300000e+00 0.0000000e+00 
6.5133333e+00 5.9700000e+00 0.0000000e+00 
6.5133333e+00 5.9900000e+00 0.0000000e+00 
6.5133333e+00 6.0100000e+00 0.0000000e+00 
6.5133333e+00 6.0300000e+00 0.0000000e+00 
6.5400000e+00 5.9700000e+00 0.0000000e+00 
6.5400000e+00 5.9900000e+00 0.0000000e+00 
6.5400000e+00 6.0100000e+00 0.0000000e+00 
6.5400000e+00 6.0300000e+00 0.0000000e+00 
6.5666667e+00 5.9700000e+00 0.0000000e+00 
6.5666667e+00 5.9900000e+00 0.0000000e+00 
6.5666667e+00 6.0100000e+00 0.0000000e+00 
6.5666667e+00 6.0300000e+00 0.0000000e+00 
6.5933333e+00 5.9700000e+00 0.0000000e+00 
6.5933333e+00 5.9900000e+00 0.0000000e+00 
6.5933333e+00 6.0100000e+00 0.0000000e+00 
6.5933333e+00 6.0300000e+00 0.0000000e+00 
6.6200000e+00 5.9700000e+00 0.0000000e+00 
6.6200000e+00 5.9900000e+00 0.0000000e+00 
6.6200000e+00 6.0100000e+00 0.0000000e+00 
6.6200000e+00 6.0300000e+00 0.0000000e+00 
6.6466667e+00 5.9700000e+00 0.0000000e+00 
6.6466667e+00 5.9900000e+00 0.0000000e+00 
6.6466667e+00 6.0100000e+00 0.0000000e+00 
6.6466667e+00 6.0300000e+00 0.0000000e+00 
6.6733333e+00 5.9700000e+00 0.0000000e+00 
6.6733333e+00 5.9900000e+00 0.0000000e+00 
6.6733333e+00 6.0100000e+00 0.0000000e+00 
6.6733333e+00 6.0300000e+00 0.0000000e+00 
6.7000000e+00 5.9700000e+00 0.0000000e+00 
6.7000000e+00 5.9900000e+00 0.0000000e+00 
6.7000000e+00 6.0100000e+00 0.0000000e+00 
6.7000000e+00 6.0300000e+00 0.0000000e+00 
6.7266667e+00 5.9700000e+00 0.0000000e+00 
6.7266667e+00 5.9900000e+00 0.0000000e+00 
6.7266667e+00 6.0100000e+00 0.0000000e+00 
6.7266667e+00 6.0300000e+00 0.0000000e+00 
6.7533333e+00 5.9700000e+00 0.0000000e+00 
6.7533333e+00 5.9900000e+00 0.0000000e+00 
6.7533333e+00 6.0100000e+00 0.0000000e+00 
6.7533333e+00 6.0300000e+00 0.0000000e+00 
6.7800000e+00 5.9700000e+00 0.0000000e+00 
6.7800000e+00 5.9900000e+00 0.0000000e+00 
6.7800000e+00 6.0100000e+00 0.0000000e+00 
6.7800000e+00 6.0300000e+00 0.0000000e+00 
6.8066667e+00 5.9700000e+00 0.0000000e+00 
6.8066667e+00 5.9900000e+00 0.0000000e+00 
6.8066667e+00 6.0100000e+00 0.0000000e+00 
6.8066667e+00 6.0300000e+00 0.0000000e+00 
6.8333333e+00 5.9700000e+00 0.0000000e+00 
6.8333333e+00 5.9900000e+00 0.0000000e+00 
6.8333333e+00 6.0100000e+00 0.0000000e+00 
6.8333333e+00 6.0300000e+00 0.0000000e+00 
6.8600000e+00 5.9700000e+00 0.0000000e+00 
6.8600000e+00 5.9900000e+00 0.0000000e+00 
6.8600000e+00 6.0100000e+00 0.0000000e+00 
6.8600000e+00 6.0300000e+00 0.0000000e+00 
6.8866667e+00 5.9700000e+00 0.0000000e+00 
6.8866667e+00 5.9900000e+00 0.0000000e+00 
6.8866667e+00 6.0100000e+00 0.0000000e+00 
6.8866667e+00 6.0300000e+00 0.0000000e+00 
6.9133333e+00 5.9700000e+00 0.0000000e+00 
6.9133333e+00 5.9900000e+00 0.0000000e+00 
6.9133333e+00 6.0100000e+00 0.0000000e+00 
6.9133333e+00 6.0300000e+00 0.0000000e+00 
6.9400000e+00 5.9700000e+00 0.0000000e+00 
6.9400000e+00 5.9900000e+00 0.0000000e+00 
6.9400000e+00 6.0100000e+00 0.0000000e+00 
6.9400000e+00 6.0300000e+00 0.0000000e+00 
6.9666667e+00 5.9700000e+00 0.0000000e+00 
6.9666667e+00 5.9900000e+00 0.0000000e+00 
6.9666667e+00 6.0100000e+00 0.0000000e+00 
6.9666667e+00 6.0300000e+00 0.0000000e+00 
6.9933333e+00 5.9700000e+00 0.0000000e+00 
6.9933333e+00 5.9900000e+00 0.0000000e+00 
6.9933333e+00 6.0100000e+00 0.0000000e+00 
6.9933333e+00 6.0300000e+00 0.0000000e+00 
7.0200000e+00 5.9700000e+00 0.0000000e+00 
7.0200000e+00 5.9900000e+00 0.0000000e+00 
[...]
POINT_DATA 604
FIELD FieldData 2
DISPLACEMENT 3 604  float
0.0000000e+00 0.0000000e+00 0.0000000e+00 
0.0000000e+00 0.0000000e+00 0.0000000e+00 
2.2414020e-04 1.3624199e-04 0.0000000e+00 
7.0934047e-05 8.7991673e-05 0.0000000e+00 
0.0000000e+00 0.0000000e+00 0.0000000e+00 
-7.2508931e-05 8.7187972e-05 0.0000000e+00 
4.5125403e-04 4.3807483e-04 0.0000000e+00 
1.4846946e-04 3.9710674e-04 0.0000000e+00 
0.0000000e+00 0.0000000e+00 0.0000000e+00 
-2.2650439e-04 1.3375508e-04 0.0000000e+00 
-1.5510565e-04 3.9492944e-04 0.0000000e+00 
6.7279398e-04 9.5264268e-04 0.0000000e+00 
-4.5910965e-04 4.3238296e-04 0.0000000e+00 
2.1817104e-04 9.0748510e-04 0.0000000e+00 
-2.3589718e-04 9.0207833e-04 0.0000000e+00 
-6.9235450e-04 9.3611284e-04 0.0000000e+00 
8.8672004e-04 1.6667040e-03 0.0000000e+00 
2.8288610e-04 1.6191363e-03 0.0000000e+00 
-3.2085649e-04 1.6101404e-03 0.0000000e+00 
-9.2705803e-04 1.6405589e-03 0.0000000e+00 
1.0916219e-03 2.5826908e-03 0.0000000e+00 
3.4056640e-04 2.5296979e-03 0.0000000e+00 
-4.1070934e-04 2.5152958e-03 0.0000000e+00 
-1.1647849e-03 2.5392438e-03 0.0000000e+00 
1.2862254e-03 3.6933066e-03 0.0000000e+00 
3.8995955e-04 3.6357043e-03 0.0000000e+00 
-5.0693199e-04 3.6158758e-03 0.0000000e+00 
-1.4069937e-03 3.6341774e-03 0.0000000e+00 
1.4693550e-03 4.9992929e-03 0.0000000e+00 
4.2933938e-04 4.9352258e-03 0.0000000e+00 
-6.1117931e-04 4.9084390e-03 0.0000000e+00 
-1.6547248e-03 4.9192858e-03 0.0000000e+00 
1.6394053e-03 6.4979902e-03 0.0000000e+00 
4.5815431e-04 6.4256753e-03 0.0000000e+00 
-7.2398812e-04 6.3904536e-03 0.0000000e+00 
-1.9095681e-03 6.3919917e-03 0.0000000e+00 
1.7955929e-03 8.1832474e-03 0.0000000e+00 
4.7486146e-04 8.1036449e-03 0.0000000e+00 
-8.4700555e-04 8.0600898e-03 0.0000000e+00 
-2.1725616e-03 8.0533150e-03 0.0000000e+00 
1.9364420e-03 1.0056996e-02 0.0000000e+00 
4.7827380e-04 9.9673368e-03 0.0000000e+00 
-9.8127983e-04 9.9138342e-03 0.0000000e+00 
-2.4447414e-03 9.8959505e-03 0.0000000e+00 
2.0611579e-03 1.2111923e-02 0.0000000e+00 
4.6736848e-04 1.2013374e-02 0.0000000e+00 
-1.1279677e-03 1.1949850e-02 0.0000000e+00 
-2.7273956e-03 1.1922057e-02 0.0000000e+00 
2.1683402e-03 1.4350003e-02 0.0000000e+00 
4.4105545e-04 1.4239817e-02 0.0000000e+00 
-1.2880161e-03 1.4164783e-02 0.0000000e+00 
-3.0213856e-03 1.4124304e-02 0.0000000e+00 
2.2573996e-03 1.6763843e-02 0.0000000e+00 
3.9840570e-04 1.6643305e-02 0.0000000e+00 
-1.4625123e-03 1.6556775e-02 0.0000000e+00 
-3.3278928e-03 1.6504920e-02 0.0000000e+00 
2.3269729e-03 1.9355506e-02 0.0000000e+00 
3.3841783e-04 1.9221913e-02 0.0000000e+00 
-1.6522852e-03 1.9122465e-02 0.0000000e+00 
-3.6476402e-03 1.9056509e-02 0.0000000e+00 
2.3766289e-03 2.2117523e-02 0.0000000e+00 
2.6027743e-04 2.1972267e-02 0.0000000e+00 
-1.8583354e-03 2.1859999e-02 0.0000000e+00 
-3.9817450e-03 2.1781352e-02 0.0000000e+00 
2.4050461e-03 2.5052035e-02 0.0000000e+00 
1.6306894e-04 2.4892454e-02 0.0000000e+00 
-2.0813759e-03 2.4766011e-02 0.0000000e+00 
-4.3307904e-03 2.4671996e-02 0.0000000e+00 
2.4119449e-03 2.8151494e-02 0.0000000e+00 
4.6090239e-05 2.7979086e-02 0.0000000e+00 
-2.3223236e-03 2.7838648e-02 0.0000000e+00 
-4.6958326e-03 2.7730771e-02 0.0000000e+00 
2.3960486e-03 3.1418111e-02 0.0000000e+00 
-9.1493065e-05 3.1230258e-02 0.0000000e+00 
-2.5817792e-03 3.1074532e-02 0.0000000e+00 
-5.0773147e-03 3.0950171e-02 0.0000000e+00 
2.3572227e-03 3.4844278e-02 0.0000000e+00 
-2.5027068e-04 3.4642566e-02 0.0000000e+00 
-2.8605757e-03 3.4471809e-02 0.0000000e+00 
-5.4762309e-03 3.4332548e-02 0.0000000e+00 
2.2941965e-03 3.8432242e-02 0.0000000e+00 
-4.3097966e-04 3.8214141e-02 0.0000000e+00 
-3.1591763e-03 3.8027063e-02 0.0000000e+00 
-5.8929325e-03 3.7870359e-02 0.0000000e+00 
2.2069357e-03 4.2174290e-02 0.0000000e+00 
-6.3405757e-04 4.1941379e-02 0.0000000e+00 
-3.4783570e-03 4.1738613e-02 0.0000000e+00 
-6.3283962e-03 4.1566014e-02 0.0000000e+00 
2.0947556e-03 4.6071591e-02 0.0000000e+00 
-8.6059970e-04 4.5822416e-02 0.0000000e+00 
-3.8189428e-03 4.5602931e-02 0.0000000e+00 
-6.7827346e-03 4.5413175e-02 0.0000000e+00 
1.9567452e-03 5.0121519e-02 0.0000000e+00 
-1.1103627e-03 4.9854811e-02 0.0000000e+00 
-4.1806858e-03 4.9617643e-02 0.0000000e+00 
-7.2567950e-03 4.9409276e-02 0.0000000e+00 
1.7930996e-03 5.4317508e-02 0.0000000e+00 
-1.3841028e-03 5.4034984e-02 0.0000000e+00 
-4.5646086e-03 5.3780860e-02 0.0000000e+00 
-7.7510035e-03 5.3555584e-02 0.0000000e+00 
1.6026665e-03 5.8661967e-02 0.0000000e+00 
-1.6824051e-03 5.8361181e-02 0.0000000e+00 
-4.9708912e-03 5.8088969e-02 0.0000000e+00 
-8.2653618e-03 5.7844386e-02 0.0000000e+00 
1.3857351e-03 6.3146992e-02 0.0000000e+00 
-2.0054589e-03 6.2829868e-02 0.0000000e+00 
-5.4000713e-03 6.2540090e-02 0.0000000e+00 
-8.8007142e-03 6.2278079e-02 0.0000000e+00 
1.1412430e-03 6.7774993e-02 0.0000000e+00 
-2.3537546e-03 6.7439109e-02 0.0000000e+00 
-5.8522680e-03 6.7130757e-02 0.0000000e+00 
-9.3568955e-03 6.6848935e-02 0.0000000e+00 
8.6964666e-04 7.2537988e-02 0.0000000e+00 
-2.7274030e-03 7.2185365e-02 0.0000000e+00 
-6.3279573e-03 7.1859030e-02 0.0000000e+00 
-9.9346568e-03 7.1559363e-02 0.0000000e+00 
5.6993200e-04 7.7438409e-02 0.0000000e+00 
-3.1268218e-03 7.7066676e-02 0.0000000e+00 
-6.8271576e-03 7.6721417e-02 0.0000000e+00 
-1.0533706e-02 7.6401583e-02 0.0000000e+00 
2.4267573e-04 8.2468215e-02 0.0000000e+00 
-3.5520176e-03 8.2079472e-02 0.0000000e+00 
-7.3502657e-03 8.1715947e-02 0.0000000e+00 
-1.1154740e-02 8.1377982e-02 0.0000000e+00 
-1.1308064e-04 8.7629832e-02 0.0000000e+00 
-4.0033343e-03 8.7221764e-02 0.0000000e+00 
-7.8971998e-03 8.6839100e-02 0.0000000e+00 
-1.1797344e-02 8.6480743e-02 0.0000000e+00 
-4.9664309e-04 9.2915170e-02 0.0000000e+00 
-4.4806765e-03 9.2489950e-02 0.0000000e+00 
-8.4682797e-03 9.2088870e-02 0.0000000e+00 
-1.2462158e-02 9.1712225e-02 0.0000000e+00 
-9.0891037e-04 9.8326638e-02 0.0000000e+00 
-4.9843160e-03 9.7882012e-02 0.0000000e+00 
-9.0633261e-03 9.7461707e-02 0.0000000e+00 
-1.3148645e-02 9.7064579e-02 0.0000000e+00 
-1.3490760e-03 1.0385612e-01 0.0000000e+00 
-5.5140561e-03 1.0339432e-01 0.0000000e+00 
-9.6825810e-03 1.0295557e-01 0.0000000e+00 
-1.3857386e-02 1.0254012e-01 0.0000000e+00 
-1.8180162e-03 1.0950597e-01 0.0000000e+00 
-6.0700804e-03 1.0902485e-01 0.0000000e+00 
-1.0325739e-02 1.0856685e-01 0.0000000e+00 
-1.4587775e-02 1.0813097e-01 0.0000000e+00 
-2.3148588e-03 1.1526801e-01 0.0000000e+00 
-6.6520302e-03 1.1476976e-01 0.0000000e+00 
-1.0993006e-02 1.1429366e-01 0.0000000e+00 
-1.5340382e-02 1.1383943e-01 0.0000000e+00 
-2.8397642e-03 1.2114345e-01 0.0000000e+00 
-7.2604460e-03 1.2062698e-01 0.0000000e+00 
-1.1684469e-02 1.2013223e-01 0.0000000e+00 
-1.6114492e-02 1.1965890e-01 0.0000000e+00 
-3.3930195e-03 1.2712943e-01 0.0000000e+00 
-7.8944426e-03 1.2659400e-01 0.0000000e+00 
-1.2399248e-02 1.2608011e-01 0.0000000e+00 
-1.6910298e-02 1.2558665e-01 0.0000000e+00 
-3.9736941e-03 1.3321906e-01 0.0000000e+00 
-8.5540472e-03 1.3266693e-01 0.0000000e+00 
-1.3137771e-02 1.3213511e-01 0.0000000e+00 
-1.7727710e-02 1.3162372e-01 0.0000000e+00 
-4.5824824e-03 1.3941462e-01 0.0000000e+00 
-9.2393151e-03 1.3884377e-01 0.0000000e+00 
-1.3899475e-02 1.3829339e-01 0.0000000e+00 
-1.8565824e-02 1.3776217e-01 0.0000000e+00 
-5.2182791e-03 1.4570788e-01 0.0000000e+00 
-9.9496869e-03 1.4512076e-01 0.0000000e+00 
-1.4684327e-02 1.4455280e-01 0.0000000e+00 
-1.9425077e-02 1.4400409e-01 0.0000000e+00 
-5.8816664e-03 1.5210103e-01 0.0000000e+00 
-1.0685113e-02 1.5149567e-01 0.0000000e+00 
-1.5491737e-02 1.5090962e-01 0.0000000e+00 
-2.0304431e-02 1.5034155e-01 0.0000000e+00 
-6.5714111e-03 1.5858587e-01 0.0000000e+00 
-1.1444977e-02 1.5796476e-01 0.0000000e+00 
-1.6321619e-02 1.5736165e-01 0.0000000e+00 
-2.1204240e-02 1.5677661e-01 0.0000000e+00 
-7.2880265e-03 1.6516452e-01 0.0000000e+00 
-1.2229164e-02 1.6452577e-01 0.0000000e+00 
-1.7173306e-02 1.6390517e-01 0.0000000e+00 
-2.2123368e-02 1.6330134e-01 0.0000000e+00 
-8.0302043e-03 1.7182882e-01 0.0000000e+00 
-1.3036977e-02 1.7117494e-01 0.0000000e+00 
-1.8046643e-02 1.7053792e-01 0.0000000e+00 
-2.3062127e-02 1.6991775e-01 0.0000000e+00 
-8.7983840e-03 1.7858082e-01 0.0000000e+00 
-1.3868235e-02 1.7791001e-01 0.0000000e+00 
-1.8940893e-02 1.7725617e-01 0.0000000e+00 
-2.4019295e-02 1.7661791e-01 0.0000000e+00 
-9.5911894e-03 1.8541241e-01 0.0000000e+00 
-1.4722170e-02 1.8472719e-01 0.0000000e+00 
-1.9855841e-02 1.8405766e-01 0.0000000e+00 
-2.4995138e-02 1.8340379e-01 0.0000000e+00 
-1.0408986e-02 1.9232556e-01 0.0000000e+00 
-1.5598541e-02 1.9162421e-01 0.0000000e+00 
-2.0790682e-02 1.9093866e-01 0.0000000e+00 
-2.5988358e-02 1.9026749e-01 0.0000000e+00 
-1.1250339e-02 1.9931227e-01 0.0000000e+00 
-1.6496510e-02 1.9859731e-01 0.0000000e+00 
-2.1745144e-02 1.9789688e-01 0.0000000e+00 
-2.6999176e-02 1.9721090e-01 0.0000000e+00 
-1.2115579e-02 2.0637437e-01 0.0000000e+00 
-1.7415771e-02 2.0564420e-01 0.0000000e+00 
-2.2718335e-02 2.0492857e-01 0.0000000e+00 
-2.8026266e-02 2.0422618e-01 0.0000000e+00 
-1.3003259e-02 2.1350392e-01 0.0000000e+00 
-1.8355358e-02 2.1276100e-01 0.0000000e+00 
-2.3709971e-02 2.1203159e-01 0.0000000e+00 
-2.9069854e-02 2.1131518e-01 0.0000000e+00 
-1.3913005e-02 2.2070174e-01 0.0000000e+00 
-1.9315275e-02 2.1994537e-01 0.0000000e+00 
-2.4719566e-02 2.1920209e-01 0.0000000e+00 
-3.0128640e-02 2.1847133e-01 0.0000000e+00 
-1.4844534e-02 2.2796483e-01 0.0000000e+00 
-2.0294228e-02 2.2719475e-01 0.0000000e+00 
-2.5745833e-02 2.2643752e-01 0.0000000e+00 
-3.1202355e-02 2.2569183e-01 0.0000000e+00 
-1.5796489e-02 2.3528667e-01 0.0000000e+00 
-2.1291675e-02 2.3450527e-01 0.0000000e+00 
-2.6788721e-02 2.3373555e-01 0.0000000e+00 
-3.2290552e-02 2.3297733e-01 0.0000000e+00 
-1.6769018e-02 2.4266889e-01 0.0000000e+00 
-2.2307249e-02 2.4187475e-01 0.0000000e+00 
-2.7847182e-02 2.4109234e-01 0.0000000e+00 
-3.3391765e-02 2.4032020e-01 0.0000000e+00 
-1.7760609e-02 2.5010388e-01 0.0000000e+00 
-2.3339902e-02 2.4929949e-01 0.0000000e+00 
-2.8920772e-02 2.4850561e-01 0.0000000e+00 
-3.4506127e-02 2.4772205e-01 0.0000000e+00 
-1.8771308e-02 2.5759318e-01 0.0000000e+00 
-2.4389181e-02 2.5677716e-01 0.0000000e+00 
-3.0008472e-02 2.5597170e-01 0.0000000e+00 
-3.5632105e-02 2.5517534e-01 0.0000000e+00 
-1.9799546e-02 2.6512932e-01 0.0000000e+00 
-2.5454035e-02 2.6430415e-01 0.0000000e+00 
-3.1109821e-02 2.6348833e-01 0.0000000e+00 
-3.6769779e-02 2.6268167e-01 0.0000000e+00 
-2.0845318e-02 2.7271377e-01 0.0000000e+00 
-2.6533981e-02 2.7187813e-01 0.0000000e+00 
-3.2223777e-02 2.7105189e-01 0.0000000e+00 
-3.7917590e-02 2.7023359e-01 0.0000000e+00 
-2.1907049e-02 2.8033922e-01 0.0000000e+00 
-2.7627943e-02 2.7949556e-01 0.0000000e+00 
-3.3349852e-02 2.7866011e-01 0.0000000e+00 
-3.9075603e-02 2.7783267e-01 0.0000000e+00 
-2.2984683e-02 2.8800707e-01 0.0000000e+00 
-2.8735412e-02 2.8715413e-01 0.0000000e+00 
-3.4486988e-02 2.8630945e-01 0.0000000e+00 
-4.0242245e-02 2.8547158e-01 0.0000000e+00 
-2.4076646e-02 2.9571020e-01 0.0000000e+00 
-2.9855299e-02 2.9485039e-01 0.0000000e+00 
-3.5634684e-02 2.9399768e-01 0.0000000e+00 
-4.1417572e-02 2.9315185e-01 0.0000000e+00 
-2.5182840e-02 3.0344994e-01 0.0000000e+00 
-3.0987077e-02 3.0258206e-01 0.0000000e+00 
-3.6791874e-02 3.0172132e-01 0.0000000e+00 
-4.2600005e-02 3.0086628e-01 0.0000000e+00 
-2.6301704e-02 3.1121937e-01 0.0000000e+00 
-3.2129652e-02 3.1034577e-01 0.0000000e+00 
-3.7958048e-02 3.0947819e-01 0.0000000e+00 
-4.3789592e-02 3.0861639e-01 0.0000000e+00 
-2.7433132e-02 3.1901975e-01 0.0000000e+00 
-3.3282475e-02 3.1813933e-01 0.0000000e+00 
-3.9132115e-02 3.1726487e-01 0.0000000e+00 
-4.4984793e-02 3.1639510e-01 0.0000000e+00 
-2.8575611e-02 3.2684434e-01 0.0000000e+00 
-3.4444402e-02 3.2595932e-01 0.0000000e+00 
-4.0313602e-02 3.2507938e-01 0.0000000e+00 
-4.6185693e-02 3.2420394e-01 0.0000000e+00 
-2.9728479e-02 3.3469357e-01 0.0000000e+00 
-3.5615149e-02 3.3380356e-01 0.0000000e+00 
-4.1501823e-02 3.3291824e-01 0.0000000e+00 
-4.7390886e-02 3.3203703e-01 0.0000000e+00 
-3.0891186e-02 3.4256487e-01 0.0000000e+00 
-3.6793409e-02 3.4166983e-01 0.0000000e+00 
-4.2695482e-02 3.4077925e-01 0.0000000e+00 
-4.8600000e-02 3.3989190e-01 0.0000000e+00 
-3.2062401e-02 3.5045287e-01 0.0000000e+00 
-3.7978483e-02 3.4955490e-01 0.0000000e+00 
-4.3894388e-02 3.4866040e-01 0.0000000e+00 
-4.9812584e-02 3.4776915e-01 0.0000000e+00 
-3.3241960e-02 3.5835878e-01 0.0000000e+00 
-3.9169884e-02 3.5745686e-01 0.0000000e+00 
-4.5097460e-02 3.5655843e-01 0.0000000e+00 
-5.1027146e-02 3.5566219e-01 0.0000000e+00 
-3.4428460e-02 3.6627646e-01 0.0000000e+00 
-4.0366549e-02 3.6537270e-01 0.0000000e+00 
-4.6304207e-02 3.6447144e-01 0.0000000e+00 
-5.2243807e-02 3.6357248e-01 0.0000000e+00 
-3.5621694e-02 3.7420706e-01 0.0000000e+00 
-4.1567960e-02 3.7330048e-01 0.0000000e+00 
-4.7513638e-02 3.7239642e-01 0.0000000e+00 
-5.3461077e-02 3.7149363e-01 0.0000000e+00 
-3.6820267e-02 3.8214471e-01 0.0000000e+00 
-4.2773111e-02 3.8123734e-01 0.0000000e+00 
-4.8725293e-02 3.8033155e-01 0.0000000e+00 
-5.4679076e-02 3.7942714e-01 0.0000000e+00 
-3.8023972e-02 3.9009052e-01 0.0000000e+00 
-4.3981500e-02 3.8918142e-01 0.0000000e+00 
-4.9938216e-02 3.8827391e-01 0.0000000e+00 
-5.5896353e-02 3.8736679e-01 0.0000000e+00 
-3.9231467e-02 3.9803887e-01 0.0000000e+00 
-4.5192159e-02 3.9713000e-01 0.0000000e+00 
-5.1151974e-02 3.9622181e-01 0.0000000e+00 
-5.7113059e-02 3.9531413e-01 0.0000000e+00 
-4.0442548e-02 4.0599089e-01 0.0000000e+00 
-4.6404608e-02 4.0508132e-01 0.0000000e+00 
-5.2365653e-02 4.0417245e-01 0.0000000e+00 
-5.8327787e-02 4.0326314e-01 0.0000000e+00 
-4.1655929e-02 4.1394120e-01 0.0000000e+00 
-4.7617925e-02 4.1303280e-01 0.0000000e+00 
-5.3578851e-02 4.1212425e-01 0.0000000e+00 
-5.9540725e-02 4.1121539e-01 0.0000000e+00 
-4.2871415e-02 4.2189092e-01 0.0000000e+00 
-4.8831659e-02 4.2098280e-01 0.0000000e+00 
-5.4790704e-02 4.2007455e-01 0.0000000e+00 
-6.0750515e-02 4.1916508e-01 0.0000000e+00 
-4.4087782e-02 4.2983496e-01 0.0000000e+00 
-5.0044936e-02 4.2892890e-01 0.0000000e+00 
-5.6000842e-02 4.2802190e-01 0.0000000e+00 
-6.1957382e-02 4.2711382e-01 0.0000000e+00 
-4.5304875e-02 4.3777444e-01 0.0000000e+00 
-5.1257331e-02 4.3686959e-01 0.0000000e+00 
-5.7208440e-02 4.3596376e-01 0.0000000e+00 
-6.3160051e-02 4.3505604e-01 0.0000000e+00 
-4.6521550e-02 4.4570451e-01 0.0000000e+00 
-5.2467984e-02 4.4480251e-01 0.0000000e+00 
-5.8413193e-02 4.4389892e-01 0.0000000e+00 
-6.4358814e-02 4.4299339e-01 0.0000000e+00 
-4.7737275e-02 4.5362573e-01 0.0000000e+00 
-5.3676699e-02 4.5272622e-01 0.0000000e+00 
-5.9614652e-02 4.5182489e-01 0.0000000e+00 
-6.5552586e-02 4.5092139e-01 0.0000000e+00 
-4.8951631e-02 4.6153647e-01 0.0000000e+00 
-5.4882541e-02 4.6063937e-01 0.0000000e+00 
-6.0811894e-02 4.5974030e-01 0.0000000e+00 
-6.6741259e-02 4.5883845e-01 0.0000000e+00 
-5.0163676e-02 4.6943316e-01 0.0000000e+00 
-5.6085072e-02 4.6853992e-01 0.0000000e+00 
-6.2004940e-02 4.6764407e-01 0.0000000e+00 
-6.7924742e-02 4.6674558e-01 0.0000000e+00 
-5.1373343e-02 4.7731702e-01 0.0000000e+00 
-5.7284022e-02 4.7642682e-01 0.0000000e+00 
-6.3193096e-02 4.7553406e-01 0.0000000e+00 
-6.9101935e-02 4.7463793e-01 0.0000000e+00 
-5.2579682e-02 4.8518403e-01 0.0000000e+00 
-5.8478726e-02 4.8429828e-01 0.0000000e+00 
-6.4376151e-02 4.8340936e-01 0.0000000e+00 
-7.0273263e-02 4.8251727e-01 0.0000000e+00 
-5.3782636e-02 4.9303543e-01 0.0000000e+00 
-5.9668921e-02 4.9215331e-01 0.0000000e+00 
-6.5553531e-02 4.9126810e-01 0.0000000e+00 
-7.1437664e-02 4.9037902e-01 0.0000000e+00 
-5.4981292e-02 5.0086746e-01 0.0000000e+00 
-6.0854026e-02 4.9999032e-01 0.0000000e+00 
-6.6725079e-02 4.9910950e-01 0.0000000e+00 
-7.2595598e-02 4.9822505e-01 0.0000000e+00 
-5.6175637e-02 5.0868144e-01 0.0000000e+00 
-6.2033824e-02 5.0780844e-01 0.0000000e+00 
-6.7890292e-02 5.0693186e-01 0.0000000e+00 
-7.3746064e-02 5.0605100e-01 0.0000000e+00 
-5.7364827e-02 5.1647388e-01 0.0000000e+00 
-6.3207802e-02 5.1560628e-01 0.0000000e+00 
-6.9049060e-02 5.1473457e-01 0.0000000e+00 
-7.4889580e-02 5.1385883e-01 0.0000000e+00 
-5.8548891e-02 5.2424617e-01 0.0000000e+00 
-6.4375789e-02 5.2338314e-01 0.0000000e+00 
-7.0200948e-02 5.2251611e-01 0.0000000e+00 
-7.6025212e-02 5.2164446e-01 0.0000000e+00 
-5.9727055e-02 5.3199510e-01 0.0000000e+00 
-6.5537340e-02 5.3113780e-01 0.0000000e+00 
-7.1345896e-02 5.3027603e-01 0.0000000e+00 
-7.7153532e-02 5.2940991e-01 0.0000000e+00 
-6.0899392e-02 5.3972212e-01 0.0000000e+00 
-6.6692332e-02 5.3886974e-01 0.0000000e+00 
-7.2483538e-02 5.3801301e-01 0.0000000e+00 
-7.8273671e-02 5.3715137e-01 0.0000000e+00 
-6.2065194e-02 5.4742432e-01 0.0000000e+00 
-6.7840388e-02 5.4657791e-01 0.0000000e+00 
-7.3613863e-02 5.4572674e-01 0.0000000e+00 
-7.9386256e-02 5.4487095e-01 0.0000000e+00 
-6.3224600e-02 5.5510321e-01 0.0000000e+00 
-6.8981429e-02 5.5426199e-01 0.0000000e+00 
-7.4736563e-02 5.5341609e-01 0.0000000e+00 
-8.0490499e-02 5.5256512e-01 0.0000000e+00 
-6.4376984e-02 5.6275614e-01 0.0000000e+00 
-7.0115115e-02 5.6192104e-01 0.0000000e+00 
-7.5851692e-02 5.6108101e-01 0.0000000e+00 
-8.1587094e-02 5.6023604e-01 0.0000000e+00 
-6.5522231e-02 5.7038430e-01 0.0000000e+00 
-7.1241563e-02 5.6955486e-01 0.0000000e+00 
-7.6959243e-02 5.6872047e-01 0.0000000e+00 
-8.2675455e-02 5.6788116e-01 0.0000000e+00 
-6.6660287e-02 5.7798737e-01 0.0000000e+00 
-7.2360368e-02 5.7716330e-01 0.0000000e+00 
-7.8058832e-02 5.7633432e-01 0.0000000e+00 
-8.3755862e-02 5.7550016e-01 0.0000000e+00 
-6.7790698e-02 5.8556373e-01 0.0000000e+00 
-7.3471527e-02 5.8474582e-01 0.0000000e+00 
-7.9150805e-02 5.8392274e-01 0.0000000e+00 
-8.4828695e-02 5.8309477e-01 0.0000000e+00 
-6.8913757e-02 5.9311515e-01 0.0000000e+00 
-7.4575129e-02 5.9230259e-01 0.0000000e+00 
-8.0235002e-02 5.9148507e-01 0.0000000e+00 
-8.5893362e-02 5.9066230e-01 0.0000000e+00 
-7.0029008e-02 6.0063974e-01 0.0000000e+00 
-7.5671026e-02 5.9983328e-01 0.0000000e+00 
-8.1311573e-02 5.9902162e-01 0.0000000e+00 
-8.6950657e-02 5.9820506e-01 0.0000000e+00 
-7.1136772e-02 6.0813932e-01 0.0000000e+00 
-7.6759317e-02 6.0733815e-01 0.0000000e+00 
-8.2380461e-02 6.0653201e-01 0.0000000e+00 
-8.8000023e-02 6.0572066e-01 0.0000000e+00 
-7.2236626e-02 6.1561223e-01 0.0000000e+00 
-7.7839927e-02 6.1481704e-01 0.0000000e+00 
-8.3441857e-02 6.1401668e-01 0.0000000e+00 
-8.9042273e-02 6.1321147e-01 0.0000000e+00 
-7.3328941e-02 6.2306039e-01 0.0000000e+00 
-7.8912996e-02 6.2227036e-01 0.0000000e+00 
-8.4495763e-02 6.2147541e-01 0.0000000e+00 
-9.0076905e-02 6.2067536e-01 0.0000000e+00 
-7.4413342e-02 6.3048235e-01 0.0000000e+00 
-7.9978501e-02 6.2969812e-01 0.0000000e+00 
-8.5542402e-02 6.2890880e-01 0.0000000e+00 
-9.1104758e-02 6.2811475e-01 0.0000000e+00 
-7.5490251e-02 6.3788015e-01 0.0000000e+00 
-8.1036620e-02 6.3710088e-01 0.0000000e+00 
-8.6581827e-02 6.3631679e-01 0.0000000e+00 
-9.2125384e-02 6.3552778e-01 0.0000000e+00 
-7.6559336e-02 6.4525251e-01 0.0000000e+00 
-8.2087380e-02 6.4447879e-01 0.0000000e+00 
-8.7614292e-02 6.4370013e-01 0.0000000e+00 
-9.3139646e-02 6.4291691e-01 0.0000000e+00 
-7.7621065e-02 6.5260156e-01 0.0000000e+00 
-8.3130994e-02 6.5183256e-01 0.0000000e+00 
-8.8639896e-02 6.5105891e-01 0.0000000e+00 
-9.4147143e-02 6.5028054e-01 0.0000000e+00 
-7.8675146e-02 6.5992624e-01 0.0000000e+00 
-8.4167533e-02 6.5916248e-01 0.0000000e+00 
-8.9658918e-02 6.5839398e-01 0.0000000e+00 
-9.5148750e-02 6.5762116e-01 0.0000000e+00 
-7.9722106e-02 6.6722875e-01 0.0000000e+00 
-8.5197241e-02 6.6646941e-01 0.0000000e+00 
-9.0671494e-02 6.6570562e-01 0.0000000e+00 
-9.6144130e-02 6.6493742e-01 0.0000000e+00 
-8.0761709e-02 6.7450816e-01 0.0000000e+00 
-8.6220200e-02 6.7375371e-01 0.0000000e+00 
-9.1677935e-02 6.7299482e-01 0.0000000e+00 
-9.7134166e-02 6.7223180e-01 0.0000000e+00 
-8.1794280e-02 6.8176646e-01 0.0000000e+00 
-8.7236823e-02 6.8101634e-01 0.0000000e+00 
-9.2678560e-02 6.8026198e-01 0.0000000e+00 
-9.8118672e-02 6.7950365e-01 0.0000000e+00 
-8.2820125e-02 6.8900440e-01 0.0000000e+00 
-8.8247102e-02 6.8825819e-01 0.0000000e+00 