# vtk DataFile Version 4.0
vtk output
ASCII
DATASET UNSTRUCTURED_GRID
POINTS 604 float
5.5000000e+00 5.9700000e+00 0.0000000e+00 
5.5000000e+00 5.9900000e+00 0.0000000e+00 
5.5266667e+00 5.9700000e+00 0.0000000e+00 
5.5266667e+00 5.9900000e+00 0.0000000e+00 
5.5000000e+00 6.0100000e+00 0.0000000e+00 
5.5266667e+00 6.0100000e+00 0.0000000e+00 
5.5533333e+00 5.9700000e+00 0.0000000e+00 
5.5533333e+00 5.9900000e+00 0.0000000e+00 
5.5000000e+00 6.0300000e+00 0.0000000e+00 
5.5266667e+00 6.0300000e+00 0.0000000e+00 
5.5533333e+00 6.0100000e+00 0.0000000e+00 
5.5800000e+00 5.9700000e+00 0.0000000e+00 
5.5533333e+00 6.0300000e+00 0.0000000e+00 
5.5800000e+00 5.9900000e+00 0.0000000e+00 
5.5800000e+00 6.0100000e+00 0.0000000e+00 
5.5800000e+00 6.0300000e+00 0.0000000e+00 
5.6066667e+00 5.9700000e+00 0.0000000e+00 
5.6066667e+00 5.9900000e+00 0.0000000e+00 
5.6066667e+00 6.0100000e+00 0.0000000e+00 
5.6066667e+00 6.0300000e+00 0.0000000e+00 
5.6333333e+00 5.9700000e+00 0.0000000e+00 
5.6333333e+00 5.9900000e+00 0.0000000e+00 
5.6333333e+00 6.0100000e+00 0.0000000e+00 
5.6333333e+00 6.0300000e+00 0.0000000e+00 
5.6600000e+00 5.9700000e+00 0.0000000e+00 
5.6600000e+00 5.9900000e+00 0.0000000e+00 
5.6600000e+00 6.0100000e+00 0.0000000e+00 
5.6600000e+00 6.0300000e+00 0.0000000e+00 
5.6866667e+00 5.9700000e+00 0.0000000e+00 
5.6866667e+00 5.9900000e+00 0.0000000e+00 
5.6866667e+00 6.0100000e+00 0.0000000e+00 
5.6866667e+00 6.0300000e+00 0.0000000e+00 
5.7133333e+00 5.9700000e+00 0.0000000e+00 
5.7133333e+00 5.9900000e+00 0.0000000e+00 
5.7133333e+00 6.0100000e+00 0.0000000e+00 
5.7133333e+00 6.0300000e+00 0.0000000e+00 
5.7400000e+00 5.9700000e+00 0.0000000e+00 
5.7400000e+00 5.9900000e+00 0.0000000e+00 
5.7400000e+00 6.0100000e+00 0.0000000e+00 
5.7400000e+00 6.0300000e+00 0.0000000e+00 
5.7666667e+00 5.9700000e+00 0.0000000e+00 
5.7666667e+00 5.9900000e+00 0.0000000e+00 
5.7666667e+00 6.0100000e+00 0.0000000e+00 
5.7666667e+00 6.0300000e+00 0.0000000e+00 
5.7933333e+00 5.9700000e+00 0.0000000e+00 
5.7933333e+00 5.9900000e+00 0.0000000e+00 
5.7933333e+00 6.0100000e+00 0.0000000e+00 
5.7933333e+00 6.0300000e+00 0.0000000e+00 
5.8200000e+00 5.9700000e+00 0.0000000e+00 
5.8200000e+00 5.9900000e+00 0.0000000e+00 
5.8200000e+00 6.0100000e+00 0.0000000e+00 
5.8200000e+00 6.0300000e+00 0.0000000e+00 
5.8466667e+00 5.9700000e+00 0.0000000e+00 
5.8466667e+00 5.9900000e+00 0.0000000e+00 
5.8466667e+00 6.0100000e+00 0.0000000e+00 
5.8466667e+00 6.0300000e+00 0.0000000e+00 
5.8733333e+00 5.9700000e+00 0.0000000e+00 
5.8733333e+00 5.9900000e+00 0.0000000e+00 
5.8733333e+00 6.0100000e+00 0.0000000e+00 
5.8733333e+00 6.0300000e+00 0.0000000e+00 
5.9000000e+00 5.9700000e+00 0.0000000e+00 
5.9000000e+00 5.9900000e+00 0.0000000e+00 
5.9000000e+00 6.0100000e+00 0.0000000e+00 
5.9000000e+00 6.0300000e+00 0.0000000e+00 
5.9266667e+00 5.9700000e+00 0.0000000e+00 
5.9266667e+00 5.9900000e+00 0.0000000e+00 
5.9266667e+00 6.0100000e+00 0.0000000e+00 
5.9266667e+00 6.0300000e+00 0.0000000e+00 
5.9533333e+00 5.9700000e+00 0.0000000e+00 
5.9533333e+00 5.9900000e+00 0.0000000e+00 
5.9533333e+00 6.0100000e+00 0.0000000e+00 
5.9533333e+00 6.0300000e+00 0.0000000e+00 
5.9800000e+00 5.9700000e+00 0.0000000e+00 
5.9800000e+00 5.9900000e+00 0.0000000e+00 
5.9800000e+00 6.0100000e+00 0.0000000e+00 
5.9800000e+00 6.0300000e+00 0.0000000e+00 
6.0066667e+00 5.9700000e+00 0.0000000e+00 
6.0066667e+00 5.9900000e+00 0.0000000e+00 
6.0066667e+00 6.0100000e+00 0.0000000e+00 
6.0066667e+00 6.0300000e+00 0.0000000e+00 
6.0333333e+00 5.9700000e+00 0.0000000e+00 
6.0333333e+00 5.9900000e+00 0.0000000e+00 
6.0333333e+00 6.0100000e+00 0.0000000e+00 
6.0333333e+00 6.0300000e+00 0.0000000e+00 
6.0600000e+00 5.9700000e+00 0.0000000e+00 
6.0600000e+00 5.9900000e+00 0.0000000e+00 
6.0600000e+00 6.0100000e+00 0.0000000e+00 
6.0600000e+00 6.0300000e+00 0.0000000e+00 
6.0866667e+00 5.9700000e+00 0.0000000e+00 
6.0866667e+00 5.9900000e+00 0.0000000e+00 
6.0866667e+00 6.0100000e+00 0.0000000e+00 
6.0866667e+00 6.0300000e+00 0.0000000e+00 
6.1133333e+00 5.9700000e+00 0.0000000e+00 
6.1133333e+00 5.9900000e+00 0.0000000e+00 
6.1133333e+00 6.0100000e+00 0.0000000e+00 
6.1133333e+00 6.0300000e+00 0.0000000e+00 
6.1400000e+00 5.9700000e+00 0.0000000e+00 
6.1400000e+00 5.9900000e+00 0.0000000e+00 
6.1400000e+00 6.0100000e+00 0.0000000e+00 
6.1400000e+00 6.0300000e+00 0.0000000e+00 
6.1666667e+00 5.9700000e+00 0.0000000e+00 
6.1666667e+00 5.9900000e+00 0.0000000e+00 
6.1666667e+00 6.0100000e+00 0.0000000e+00 
6.1666667e+00 6.0300000e+00 0.0000000e+00 
6.1933333e+00 5.9700000e+00 0.0000000e+00 
6.1933333e+00 5.9900000e+00 0.0000000e+00 
6.1933333e+00 6.0100000e+00 0.0000000e+00 
6.1933333e+00 6.0300000e+00 0.0000000e+00 
6.2200000e+00 5.9700000e+00 0.0000000e+00 
6.2200000e+00 5.9900000e+00 0.0000000e+00 
6.2200000e+00 6.0100000e+00 0.0000000e+00 
6.2200000e+00 6.0300000e+00 0.0000000e+00 
6.2466667e+00 5.9700000e+00 0.0000000e+00 
6.2466667e+00 5.9900000e+00 0.0000000e+00 
6.2466667e+00 6.0100000e+00 0.0000000e+00 
6.2466667e+00 6.0300000e+00 0.0000000e+00 
6.2733333e+00 5.9700000e+00 0.0000000e+00 
6.2733333e+00 5.9900000e+00 0.0000000e+00 
6.2733333e+00 6.0100000e+00 0.0000000e+00 
6.2733333e+00 6.0300000e+00 0.0000000e+00 
6.3000000e+00 5.9700000e+00 0.0000000e+00 
6.3000000e+00 5.9900000e+00 0.0000000e+00 
6.3000000e+00 6.0100000e+00 0.0000000e+00 
6.3000000e+00 6.0300000e+00 0.0000000e+00 
6.3266667e+00 5.9700000e+00 0.0000000e+00 
6.3266667e+00 5.9900000e+00 0.0000000e+00 
6.3266667e+00 6.0100000e+00 0.0000000e+00 
6.3266667e+00 6.0300000e+00 0.0000000e+00 
6.3533333e+00 5.9700000e+00 0.0000000e+00 
6.3533333e+00 5.9900000e+00 0.0000000e+00 
6.3533333e+00 6.0100000e+00 0.0000000e+00 
6.3533333e+00 6.0300000e+00 0.0000000e+00 
6.3800000e+00 5.9700000e+00 0.0000000e+00 
6.3800000e+00 5.9900000e+00 0.0000000e+00 
6.3800000e+00 6.0100000e+00 0.0000000e+00 
6.3800000e+00 6.0300000e+00 0.0000000e+00 
6.4066667e+00 5.9700000e+00 0.0000000e+00 
6.4066667e+00 5.9900000e+00 0.0000000e+00 
6.4066667e+00 6.0100000e+00 0.0000000e+00 
6.4066667e+00 6.0300000e+00 0.0000000e+00 
6.4333333e+00 5.9700000e+00 0.0000000e+00 
6.4333333e+00 5.9900000e+00 0.0000000e+00 
6.4333333e+00 6.0100000e+00 0.0000000e+00 
6.4333333e+00 6.0300000e+00 0.0000000e+00 
6.4600000e+00 5.9700000e+00 0.0000000e+00 
6.4600000e+00 5.9900000e+00 0.0000000e+00 
6.4600000e+00 6.0100000e+00 0.0000000e+00 
6.4600000e+00 6.0300000e+00 0.0000000e+00 
6.4866667e+00 5.9700000e+00 0.0000000e+00 
6.4866667e+00 5.9900000e+00 0.0000000e+00 
6.4866667e+00 6.0100000e+00 0.0000000e+00 
6.4866667e+00 6.0300000e+00 0.0000000e+00 
6.5133333e+00 5.9700000e+00 0.0000000e+00 
6.5133333e+00 5.9900000e+00 0.0000000e+00 
6.5133333e+00 6.0100000e+00 0.0000000e+00 
6.5133333e+00 6.0300000e+00 0.0000000e+00 
6.5400000e+00 5.9700000e+00 0.0000000e+00 
6.5400000e+00 5.9900000e+00 0.0000000e+00 
6.5400000e+00 6.0100000e+00 0.0000000e+00 
6.5400000e+00 6.0300000e+00 0.0000000e+00 
6.5666667e+00 5.9700000e+00 0.0000000e+00 
6.5666667e+00 5.9900000e+00 0.0000000e+00 
6.5666667e+00 6.0100000e+00 0.0000000e+00 
6.5666667e+00 6.0300000e+00 0.0000000e+00 
6.5933333e+00 5.9700000e+00 0.0000000e+00 
6.5933333e+00 5.9900000e+00 0.0000000e+00 
6.5933333e+00 6.0100000e+00 0.0000000e+00 
6.5933333e+00 6.0300000e+00 0.0000000e+00 
6.6200000e+00 5.9700000e+00 0.0000000e+00 
6.6200000e+00 5.9900000e+00 0.0000000e+00 
6.6200000e+00 6.0100000e+00 0.0000000e+00 
6.6200000e+00 6.0300000e+00 0.0000000e+00 
6.6466667e+00 5.9700000e+00 0.0000000e+00 
6.6466667e+00 5.9900000e+00 0.0000000e+00 
6.6466667e+00 6.0100000e+00 0.0000000e+00 
6.6466667e+00 6.0300000e+00 0.0000000e+00 
6.6733333e+00 5.9700000e+00 0.0000000e+00 
6.6733333e+00 5.9900000e+00 0.0000000e+00 
6.6733333e+00 6.0100000e+00 0.0000000e+00 
6.6733333e+00 6.0300000e+00 0.0000000e+00 
6.7000000e+00 5.9700000e+00 0.0000000e+00 
6.7000000e+00 5.9900000e+00 0.0000000e+00 
6.7000000e+00 6.0100000e+00 0.0000000e+00 
6.7000000e+00 6.0300000e+00 0.0000000e+00 
6.7266667e+00 5.9700000e+00 0.0000000e+00 
6.7266667e+00 5.9900000e+00 0.0000000e+00 
6.7266667e+00 6.0100000e+00 0.0000000e+00 
6.7266667e+00 6.0300000e+00 0.0000000e+00 
6.7533333e+00 5.9700000e+00 0.0000000e+00 
6.7533333e+00 5.9900000e+00 0.0000000e+00 
6.7533333e+00 6.0100000e+00 0.0000000e+00 
6.7533333e+00 6.0300000e+00 0.0000000e+00 
6.7800000e+00 5.9700000e+00 0.0000000e+00 
6.7800000e+00 5.9900000e+00 0.0000000e+00 
6.7800000e+00 6.0100000e+00 0.0000000e+00 
6.7800000e+00 6.0300000e+00 0.0000000e+00 
6.8066667e+00 5.9700000e+00 0.0000000e+00 
6.8066667e+00 5.9900000e+00 0.0000000e+00 
6.8066667e+00 6.0100000e+00 0.0000000e+00 
6.8066667e+00 6.0300000e+00 0.0000000e+00 
6.8333333e+00 5.9700000e+00 0.0000000e+00 
6.8333333e+00 5.9900000e+00 0.0000000e+00 
6.8333333e+00 6.0100000e+00 0.0000000e+00 
6.8333333e+00 6.0300000e+00 0.0000000e+00 
6.8600000e+00 5.9700000e+00 0.0000000e+00 
6.8600000e+00 5.9900000e+00 0.0000000e+00 
6.8600000e+00 6.0100000e+00 0.0000000e+00 
6.8600000e+00 6.0300000e+00 0.0000000e+00 
6.8866667e+00 5.9700000e+00 0.0000000e+00 
6.8866667e+00 5.9900000e+00 0.0000000e+00 
6.8866667e+00 6.0100000e+00 0.0000000e+00 
6.8866667e+00 6.0300000e+00 0.0000000e+00 
6.9133333e+00 5.9700000e+00 0.0000000e+00 
6.9133333e+00 5.9900000e+00 0.0000000e+00 
6.9133333e+00 6.0100000e+00 0.0000000e+00 
6.9133333e+00 6.0300000e+00 0.0000000e+00 
6.9400000e+00 5.9700000e+00 0.0000000e+00 
6.9400000e+00 5.9900000e+00 0.0000000e+00 
6.9400000e+00 6.0100000e+00 0.0000000e+00 
6.9400000e+00 6.0300000e+00 0.0000000e+00 
6.9666667e+00 5.9700000e+00 0.0000000e+00 
6.9666667e+00 5.9900000e+00 0.0000000e+00 
6.9666667e+00 6.0100000e+00 0.0000000e+00 
6.9666667e+00 6.0300000e+00 0.0000000e+00 
6.9933333e+00 5.9700000e+00 0.0000000e+00 
6.9933333e+00 5.9900000e+00 0.0000000e+00 
6.9933333e+00 6.0100000e+00 0.0000000e+00 
6.9933333e+00 6.0300000e+00 0.0000000e+00 
7.0200000e+00 5.9700000e+00 0.0000000e+00 
7.0200000e+00 5.9900000e+00 0.0000000e+00 
[...]
POINT_DATA 604
FIELD FieldData 2
DISPLACEMENT 3 604  float
0.0000000e+00 0.0000000e+00 0.0000000e+00 
0.0000000e+00 0.0000000e+00 0.0000000e+00 
-1.1633301e-06 -6.9491337e-07 0.0000000e+00 
-3.7903466e-07 -4.4782367e-07 0.0000000e+00 
0.0000000e+00 0.0000000e+00 0.0000000e+00 
3.5632990e-07 -4.4647169e-07 0.0000000e+00 
-2.3522545e-06 -2.2134081e-06 0.0000000e+00 
-7.9745154e-07 -2.0230225e-06 0.0000000e+00 
0.0000000e+00 0.0000000e+00 0.0000000e+00 
1.1455440e-06 -6.8547828e-07 0.0000000e+00 
7.5936718e-07 -2.0297822e-06 0.0000000e+00 
-3.5294088e-06 -4.8424877e-06 0.0000000e+00 
2.3150501e-06 -2.2420227e-06 0.0000000e+00 
-1.1923442e-06 -4.6341159e-06 0.0000000e+00 
1.1376722e-06 -4.6342839e-06 0.0000000e+00 
3.4744354e-06 -4.8330471e-06 0.0000000e+00 
-4.6919807e-06 -8.4623853e-06 0.0000000e+00 
-1.5860322e-06 -8.2727042e-06 0.0000000e+00 
1.5139656e-06 -8.2788428e-06 0.0000000e+00 
4.6197399e-06 -8.4907033e-06 0.0000000e+00 
-5.8409837e-06 -1.3139987e-05 0.0000000e+00 
-1.9753761e-06 -1.2937141e-05 0.0000000e+00 
1.8849231e-06 -1.2936540e-05 0.0000000e+00 
5.7517902e-06 -1.3130501e-05 0.0000000e+00 
-6.9755035e-06 -1.8787205e-05 0.0000000e+00 
-2.3610560e-06 -1.8601331e-05 0.0000000e+00 
2.2506229e-06 -1.8610070e-05 0.0000000e+00 
6.8713714e-06 -1.8816384e-05 0.0000000e+00 
-8.0997517e-06 -2.5449452e-05 0.0000000e+00 
-2.7368408e-06 -2.5265868e-05 0.0000000e+00 
2.6173189e-06 -2.5274746e-05 0.0000000e+00 
7.9744186e-06 -2.5478678e-05 0.0000000e+00 
-9.2086647e-06 -3.3114182e-05 0.0000000e+00 
-3.1143094e-06 -3.2918883e-05 0.0000000e+00 
2.9734354e-06 -3.2918687e-05 0.0000000e+00 
9.0662211e-06 -3.3106172e-05 0.0000000e+00 
-1.0305449e-05 -4.1713877e-05 0.0000000e+00 
-3.4873998e-06 -4.1536136e-05 0.0000000e+00 
3.3251159e-06 -4.1542750e-05 0.0000000e+00 
1.0143701e-05 -4.1743289e-05 0.0000000e+00 
-1.1390480e-05 -5.1310361e-05 0.0000000e+00 
-3.8561230e-06 -5.1119901e-05 0.0000000e+00 
3.6723968e-06 -5.1121066e-05 0.0000000e+00 
1.1206614e-05 -5.1304174e-05 0.0000000e+00 
-1.2462444e-05 -6.1819606e-05 0.0000000e+00 
-4.2210573e-06 -6.1646818e-05 0.0000000e+00 
4.0147277e-06 -6.1653785e-05 0.0000000e+00 
1.2256402e-05 -6.1850113e-05 0.0000000e+00 
-1.3522268e-05 -7.3301750e-05 0.0000000e+00 
-4.5820723e-06 -7.3116395e-05 0.0000000e+00 
4.3523003e-06 -7.3118038e-05 0.0000000e+00 
1.3292267e-05 -7.3297129e-05 0.0000000e+00 
-1.4569288e-05 -8.5673982e-05 0.0000000e+00 
-4.9393949e-06 -8.5506057e-05 0.0000000e+00 
4.6849130e-06 -8.5513427e-05 0.0000000e+00 
1.4315008e-05 -8.5705546e-05 0.0000000e+00 
-1.5604307e-05 -9.8995400e-05 0.0000000e+00 
-5.2928807e-06 -9.8815208e-05 0.0000000e+00 
5.0127766e-06 -9.8817420e-05 0.0000000e+00 
1.5323959e-05 -9.8992646e-05 0.0000000e+00 
-1.6626761e-05 -1.1318462e-04 0.0000000e+00 
-5.6427326e-06 -1.1302163e-04 0.0000000e+00 
5.3357115e-06 -1.1302951e-04 0.0000000e+00 
1.6319822e-05 -1.1321759e-04 0.0000000e+00 
-1.7637289e-05 -1.2829963e-04 0.0000000e+00 
-5.9888380e-06 -1.2812463e-04 0.0000000e+00 
5.6539017e-06 -1.2812750e-04 0.0000000e+00 
1.7302099e-05 -1.2829900e-04 0.0000000e+00 
-1.8635510e-05 -1.4426030e-04 0.0000000e+00 
-6.3313493e-06 -1.4410231e-04 0.0000000e+00 
5.9672152e-06 -1.4411083e-04 0.0000000e+00 
1.8271311e-05 -1.4429503e-04 0.0000000e+00 
-1.9621863e-05 -1.6112371e-04 0.0000000e+00 
-6.6701870e-06 -1.6095395e-04 0.0000000e+00 
6.2758068e-06 -1.6095758e-04 0.0000000e+00 
1.9227163e-05 -1.6112548e-04 0.0000000e+00 
-2.0596219e-05 -1.7881093e-04 0.0000000e+00 
-7.0054658e-06 -1.7865792e-04 0.0000000e+00 
6.5795782e-06 -1.7866716e-04 0.0000000e+00 
2.0169918e-05 -1.7884754e-04 0.0000000e+00 
-2.1558225e-05 -1.9737821e-04 0.0000000e+00 
-7.3374586e-06 -1.9721390e-04 0.0000000e+00 
6.8783350e-06 -1.9721750e-04 0.0000000e+00 
2.1100076e-05 -1.9738213e-04 0.0000000e+00 
-2.2507492e-05 -2.1674689e-04 0.0000000e+00 
-7.6663328e-06 -2.1659811e-04 0.0000000e+00 
7.1719092e-06 -2.1661044e-04 0.0000000e+00 
2.2018147e-05 -2.1678636e-04 0.0000000e+00 
-2.3447378e-05 -2.3695694e-04 0.0000000e+00 
-7.9865001e-06 -2.3681078e-04 0.0000000e+00 
7.4660091e-06 -2.3682355e-04 0.0000000e+00 
2.2920905e-05 -2.3699777e-04 0.0000000e+00 
-2.4373052e-05 -2.5799735e-04 0.0000000e+00 
-8.3083502e-06 -2.5784093e-04 0.0000000e+00 
7.7502404e-06 -2.5784595e-04 0.0000000e+00 
2.3813429e-05 -2.5800557e-04 0.0000000e+00 
-2.5288332e-05 -2.7980650e-04 0.0000000e+00 
-8.6262333e-06 -2.7966657e-04 0.0000000e+00 
8.0303227e-06 -2.7967816e-04 0.0000000e+00 
2.4692007e-05 -2.7985012e-04 0.0000000e+00 
-2.6192305e-05 -3.0244099e-04 0.0000000e+00 
-8.9404202e-06 -3.0228962e-04 0.0000000e+00 
8.3060491e-06 -3.0229655e-04 0.0000000e+00 
2.5557710e-05 -3.0245273e-04 0.0000000e+00 
-2.7085075e-05 -3.2582302e-04 0.0000000e+00 
-9.2510950e-06 -3.2568857e-04 0.0000000e+00 
8.5772413e-06 -3.2570130e-04 0.0000000e+00 
2.6410505e-05 -3.2587030e-04 0.0000000e+00 
-2.7966066e-05 -3.5000929e-04 0.0000000e+00 
-9.5584416e-06 -3.4986316e-04 0.0000000e+00 
8.8437863e-06 -3.4987119e-04 0.0000000e+00 
2.7251126e-05 -3.5002423e-04 0.0000000e+00 
-2.8836092e-05 -3.7492132e-04 0.0000000e+00 
-9.8623044e-06 -3.7479228e-04 0.0000000e+00 
9.1058419e-06 -3.7480618e-04 0.0000000e+00 
2.8078823e-05 -3.7497223e-04 0.0000000e+00 
-2.9694395e-05 -4.0061674e-04 0.0000000e+00 
-1.0162883e-05 -4.0047587e-04 0.0000000e+00 
9.3632799e-06 -4.0048505e-04 0.0000000e+00 
2.8894508e-05 -4.0063504e-04 0.0000000e+00 
-3.0541907e-05 -4.2701642e-04 0.0000000e+00 
-1.0459999e-05 -4.2689282e-04 0.0000000e+00 
9.6162782e-06 -4.2690797e-04 0.0000000e+00 
2.9697308e-05 -4.2707118e-04 0.0000000e+00 
-3.1377746e-05 -4.5417890e-04 0.0000000e+00 
-1.0753884e-05 -4.5404329e-04 0.0000000e+00 
9.8646777e-06 -4.5405368e-04 0.0000000e+00 
3.0488258e-05 -4.5420068e-04 0.0000000e+00 
-3.2202954e-05 -4.8202425e-04 0.0000000e+00 
-1.1044326e-05 -4.8190611e-04 0.0000000e+00 
1.0108683e-05 -4.8192257e-04 0.0000000e+00 
3.1266370e-05 -4.8208304e-04 0.0000000e+00 
-3.3016562e-05 -5.1061204e-04 0.0000000e+00 
-1.1331574e-05 -5.1048171e-04 0.0000000e+00 
1.0348123e-05 -5.1049333e-04 0.0000000e+00 
3.2032761e-05 -5.1063744e-04 0.0000000e+00 
-3.3819735e-05 -5.3986162e-04 0.0000000e+00 
-1.1615416e-05 -5.3974883e-04 0.0000000e+00 
1.0583198e-05 -5.3976660e-04 0.0000000e+00 
3.2786319e-05 -5.3992428e-04 0.0000000e+00 
-3.4610809e-05 -5.6983345e-04 0.0000000e+00 
-1.1896449e-05 -5.6970860e-04 0.0000000e+00 
1.0813390e-05 -5.6972054e-04 0.0000000e+00 
3.3528850e-05 -5.6986203e-04 0.0000000e+00 
-3.5390507e-05 -6.0044537e-04 0.0000000e+00 
-1.2174544e-05 -6.0033705e-04 0.0000000e+00 
1.1038801e-05 -6.0035870e-04 0.0000000e+00 
3.4259679e-05 -6.0051276e-04 0.0000000e+00 
-3.6161533e-05 -6.3174160e-04 0.0000000e+00 
-1.2443758e-05 -6.3163621e-04 0.0000000e+00 
1.1265478e-05 -6.3165847e-04 0.0000000e+00 
3.4976214e-05 -6.3181144e-04 0.0000000e+00 
-3.6918705e-05 -6.6371281e-04 0.0000000e+00 
-1.2715402e-05 -6.6359579e-04 0.0000000e+00 
1.1482108e-05 -6.6360975e-04 0.0000000e+00 
3.5683812e-05 -6.6374706e-04 0.0000000e+00 
-3.7666801e-05 -6.9629234e-04 0.0000000e+00 
-1.2983203e-05 -6.9619345e-04 0.0000000e+00 
1.1694992e-05 -6.9621483e-04 0.0000000e+00 
3.6377761e-05 -6.9636637e-04 0.0000000e+00 
-3.8404097e-05 -7.2954528e-04 0.0000000e+00 
-1.3247658e-05 -7.2943321e-04 0.0000000e+00 
1.1903711e-05 -7.2944943e-04 0.0000000e+00 
3.7059924e-05 -7.2958378e-04 0.0000000e+00 
-3.9131279e-05 -7.6338622e-04 0.0000000e+00 
-1.3508798e-05 -7.6329292e-04 0.0000000e+00 
1.2108208e-05 -7.6331576e-04 0.0000000e+00 
3.7729643e-05 -7.6346501e-04 0.0000000e+00 
-3.9847209e-05 -7.9788131e-04 0.0000000e+00 
-1.3766956e-05 -7.9777438e-04 0.0000000e+00 
1.2308231e-05 -7.9779192e-04 0.0000000e+00 
3.8388195e-05 -7.9792356e-04 0.0000000e+00 
-4.0553158e-05 -8.3294356e-04 0.0000000e+00 
-1.4021838e-05 -8.3285571e-04 0.0000000e+00 
1.2504046e-05 -8.3287998e-04 0.0000000e+00 
3.9034328e-05 -8.3302685e-04 0.0000000e+00 
-4.1247966e-05 -8.6864080e-04 0.0000000e+00 
-1.4273757e-05 -8.6853901e-04 0.0000000e+00 
1.2695424e-05 -8.6855788e-04 0.0000000e+00 
3.9669350e-05 -8.6868684e-04 0.0000000e+00 
-4.1932867e-05 -9.0488470e-04 0.0000000e+00 
-1.4522430e-05 -9.0480226e-04 0.0000000e+00 
1.2882618e-05 -9.0482796e-04 0.0000000e+00 
4.0292038e-05 -9.0497248e-04 0.0000000e+00 
-4.2606729e-05 -9.4174455e-04 0.0000000e+00 
-1.4768170e-05 -9.4164786e-04 0.0000000e+00 
1.3065402e-05 -9.4166804e-04 0.0000000e+00 
4.0903684e-05 -9.4179436e-04 0.0000000e+00 
-4.3270757e-05 -9.7913068e-04 0.0000000e+00 
-1.5010697e-05 -9.7905362e-04 0.0000000e+00 
1.3244026e-05 -9.7908076e-04 0.0000000e+00 
4.1503093e-05 -9.7922295e-04 0.0000000e+00 
-4.3923880e-05 -1.0171139e-03 0.0000000e+00 
-1.5250306e-05 -1.0170223e-03 0.0000000e+00 
1.3418286e-05 -1.0170438e-03 0.0000000e+00 
4.2091511e-05 -1.0171675e-03 0.0000000e+00 
-4.4567302e-05 -1.0556034e-03 0.0000000e+00 
-1.5486752e-05 -1.0555315e-03 0.0000000e+00 
1.3588400e-05 -1.0555600e-03 0.0000000e+00 
4.2667745e-05 -1.0556997e-03 0.0000000e+00 
-4.5199300e-05 -1.0946711e-03 0.0000000e+00 
-1.5720701e-05 -1.0945848e-03 0.0000000e+00 
1.3753797e-05 -1.0946065e-03 0.0000000e+00 
4.3233707e-05 -1.0947279e-03 0.0000000e+00 
-4.5820435e-05 -1.1342245e-03 0.0000000e+00 
-1.5952043e-05 -1.1341567e-03 0.0000000e+00 
1.3914543e-05 -1.1341895e-03 0.0000000e+00 
4.3788851e-05 -1.1343257e-03 0.0000000e+00 
-4.6434069e-05 -1.1743168e-03 0.0000000e+00 
-1.6173935e-05 -1.1742518e-03 0.0000000e+00 
1.4077623e-05 -1.1742852e-03 0.0000000e+00 
4.4329980e-05 -1.1744204e-03 0.0000000e+00 
-4.7034327e-05 -1.2149392e-03 0.0000000e+00 
-1.6399370e-05 -1.2148603e-03 0.0000000e+00 
1.4230041e-05 -1.2148840e-03 0.0000000e+00 
4.4863208e-05 -1.2150016e-03 0.0000000e+00 
-4.7626319e-05 -1.2560176e-03 0.0000000e+00 
-1.6621193e-05 -1.2559589e-03 0.0000000e+00 
1.4378995e-05 -1.2559909e-03 0.0000000e+00 
4.5383512e-05 -1.2561251e-03 0.0000000e+00 
-4.8208570e-05 -1.2976285e-03 0.0000000e+00 
-1.6839883e-05 -1.2975542e-03 0.0000000e+00 
1.4524117e-05 -1.2975802e-03 0.0000000e+00 
4.5892604e-05 -1.2976951e-03 0.0000000e+00 
-4.8781386e-05 -1.3396767e-03 0.0000000e+00 
-1.7055576e-05 -1.3396232e-03 0.0000000e+00 
1.4665252e-05 -1.3396566e-03 0.0000000e+00 
4.6390235e-05 -1.3397887e-03 0.0000000e+00 
-4.9344006e-05 -1.3822395e-03 0.0000000e+00 
-1.7268562e-05 -1.3821700e-03 0.0000000e+00 
1.4802232e-05 -1.3821972e-03 0.0000000e+00 
4.6877410e-05 -1.3823095e-03 0.0000000e+00 
-4.9897385e-05 -1.4252204e-03 0.0000000e+00 
-1.7478610e-05 -1.4251719e-03 0.0000000e+00 
1.4935269e-05 -1.4252066e-03 0.0000000e+00 
4.7353246e-05 -1.4253365e-03 0.0000000e+00 
-5.0440763e-05 -1.4686983e-03 0.0000000e+00 
-1.7685981e-05 -1.4686334e-03 0.0000000e+00 
1.5064233e-05 -1.4686619e-03 0.0000000e+00 
4.7818758e-05 -1.4687717e-03 0.0000000e+00 
-5.0975045e-05 -1.5125756e-03 0.0000000e+00 
-1.7890462e-05 -1.5125319e-03 0.0000000e+00 
1.5189315e-05 -1.5125679e-03 0.0000000e+00 
4.8273129e-05 -1.5126956e-03 0.0000000e+00 
-5.1499506e-05 -1.5569324e-03 0.0000000e+00 
-1.8092314e-05 -1.5568721e-03 0.0000000e+00 
1.5310396e-05 -1.5569018e-03 0.0000000e+00 
4.8717342e-05 -1.5570093e-03 0.0000000e+00 
-5.2015030e-05 -1.6016703e-03 0.0000000e+00 
-1.8291326e-05 -1.6016314e-03 0.0000000e+00 
1.5427663e-05 -1.6016687e-03 0.0000000e+00 
4.9150620e-05 -1.6017943e-03 0.0000000e+00 
-5.2520937e-05 -1.6468706e-03 0.0000000e+00 
-1.8487741e-05 -1.6468149e-03 0.0000000e+00 
1.5541021e-05 -1.6468457e-03 0.0000000e+00 
4.9573899e-05 -1.6469509e-03 0.0000000e+00 
-5.3018137e-05 -1.6924343e-03 0.0000000e+00 
-1.8681377e-05 -1.6924000e-03 0.0000000e+00 
1.5650625e-05 -1.6924384e-03 0.0000000e+00 
4.9986389e-05 -1.6925617e-03 0.0000000e+00 
-5.3505194e-05 -1.7384435e-03 0.0000000e+00 
-1.8872899e-05 -1.7383926e-03 0.0000000e+00 
1.5755968e-05 -1.7384233e-03 0.0000000e+00 
5.0389778e-05 -1.7385264e-03 0.0000000e+00 
-5.3982322e-05 -1.7847978e-03 0.0000000e+00 
-1.9062268e-05 -1.7847667e-03 0.0000000e+00 
1.5857031e-05 -1.7848095e-03 0.0000000e+00 
5.0783976e-05 -1.7849294e-03 0.0000000e+00 
-5.4453616e-05 -1.8315581e-03 0.0000000e+00 
-1.9241876e-05 -1.8315295e-03 0.0000000e+00 
1.5961634e-05 -1.8315728e-03 0.0000000e+00 
5.1165085e-05 -1.8316918e-03 0.0000000e+00 
-5.4912581e-05 -1.8787171e-03 0.0000000e+00 
-1.9426106e-05 -1.8786725e-03 0.0000000e+00 
1.6055387e-05 -1.8787049e-03 0.0000000e+00 
5.1539955e-05 -1.8788047e-03 0.0000000e+00 
-5.5364594e-05 -1.9261949e-03 0.0000000e+00 
-1.9607069e-05 -1.9261720e-03 0.0000000e+00 
1.6146241e-05 -1.9262135e-03 0.0000000e+00 
5.1903383e-05 -1.9263318e-03 0.0000000e+00 
-5.5808368e-05 -1.9740784e-03 0.0000000e+00 
-1.9785235e-05 -1.9740377e-03 0.0000000e+00 
1.6233883e-05 -1.9740724e-03 0.0000000e+00 
5.2256893e-05 -1.9741696e-03 0.0000000e+00 
-5.6243916e-05 -2.0222646e-03 0.0000000e+00 
-1.9960787e-05 -2.0222463e-03 0.0000000e+00 
1.6318073e-05 -2.0222889e-03 0.0000000e+00 
5.2600571e-05 -2.0224055e-03 0.0000000e+00 
-5.6670687e-05 -2.0708411e-03 0.0000000e+00 
-2.0134003e-05 -2.0708045e-03 0.0000000e+00 
1.6398697e-05 -2.0708402e-03 0.0000000e+00 
5.2935189e-05 -2.0709352e-03 0.0000000e+00 
-5.7089419e-05 -2.1197037e-03 0.0000000e+00 
-2.0304651e-05 -2.1196897e-03 0.0000000e+00 
1.6475925e-05 -2.1197334e-03 0.0000000e+00 
5.3260089e-05 -2.1198481e-03 0.0000000e+00 
-5.7499539e-05 -2.1689415e-03 0.0000000e+00 
-2.0472978e-05 -2.1689089e-03 0.0000000e+00 
1.6549668e-05 -2.1689456e-03 0.0000000e+00 
5.3576054e-05 -2.1690384e-03 0.0000000e+00 
-5.7901724e-05 -2.2184491e-03 0.0000000e+00 
-2.0638765e-05 -2.2184393e-03 0.0000000e+00 
1.6620076e-05 -2.2184841e-03 0.0000000e+00 
5.3882466e-05 -2.2185968e-03 0.0000000e+00 
-5.8295429e-05 -2.2683170e-03 0.0000000e+00 
-2.0802258e-05 -2.2682883e-03 0.0000000e+00 
1.6687060e-05 -2.2683260e-03 0.0000000e+00 
5.4180075e-05 -2.2684167e-03 0.0000000e+00 
-5.8681284e-05 -2.3184387e-03 0.0000000e+00 
-2.0963234e-05 -2.3184330e-03 0.0000000e+00 
1.6750767e-05 -2.3184789e-03 0.0000000e+00 
5.4468283e-05 -2.3185897e-03 0.0000000e+00 
-5.9058807e-05 -2.3689061e-03 0.0000000e+00 
-2.1121919e-05 -2.3688812e-03 0.0000000e+00 
1.6811124e-05 -2.3689198e-03 0.0000000e+00 
5.4747778e-05 -2.3690084e-03 0.0000000e+00 
-5.9428622e-05 -2.4196117e-03 0.0000000e+00 
-2.1278126e-05 -2.4196098e-03 0.0000000e+00 
1.6868239e-05 -2.4196566e-03 0.0000000e+00 
5.5017942e-05 -2.4197654e-03 0.0000000e+00 
-5.9789442e-05 -2.4706483e-03 0.0000000e+00 
-2.1432533e-05 -2.4706275e-03 0.0000000e+00 
1.6921584e-05 -2.4706656e-03 0.0000000e+00 
5.5280269e-05 -2.4707524e-03 0.0000000e+00 
-6.0141068e-05 -2.5219068e-03 0.0000000e+00 
-2.1585137e-05 -2.5219074e-03 0.0000000e+00 
1.6971062e-05 -2.5219587e-03 0.0000000e+00 
5.5534943e-05 -2.5220640e-03 0.0000000e+00 
-6.0488290e-05 -2.5734566e-03 0.0000000e+00 
-2.1727493e-05 -2.5734594e-03 0.0000000e+00 
1.7025282e-05 -2.5735111e-03 0.0000000e+00 
5.5777319e-05 -2.5736156e-03 0.0000000e+00 
-6.0823883e-05 -2.6252913e-03 0.0000000e+00 
-2.1875450e-05 -2.6252760e-03 0.0000000e+00 
1.7068387e-05 -2.6253154e-03 0.0000000e+00 
5.6014823e-05 -2.6253989e-03 0.0000000e+00 
-6.1153326e-05 -2.6773245e-03 0.0000000e+00 
-2.2020322e-05 -2.6773326e-03 0.0000000e+00 
1.7109058e-05 -2.6773818e-03 0.0000000e+00 
5.6242015e-05 -2.6774859e-03 0.0000000e+00 
-6.1475651e-05 -2.7296536e-03 0.0000000e+00 
-2.2162534e-05 -2.7296416e-03 0.0000000e+00 
1.7147014e-05 -2.7296831e-03 0.0000000e+00 
5.6460104e-05 -2.7297642e-03 0.0000000e+00 
-6.1790331e-05 -2.7821670e-03 0.0000000e+00 
-2.2302361e-05 -2.7821790e-03 0.0000000e+00 
1.7181906e-05 -2.7822291e-03 0.0000000e+00 
5.6669578e-05 -2.7823315e-03 0.0000000e+00 
-6.2097255e-05 -2.8349625e-03 0.0000000e+00 
-2.2440011e-05 -2.8349539e-03 0.0000000e+00 
1.7213671e-05 -2.8349962e-03 0.0000000e+00 
5.6870806e-05 -2.8350751e-03 0.0000000e+00 
-6.2396670e-05 -2.8879273e-03 0.0000000e+00 
-2.2575321e-05 -2.8879429e-03 0.0000000e+00 
1.7242402e-05 -2.8879938e-03 0.0000000e+00 
5.7063501e-05 -2.8880942e-03 0.0000000e+00 
-6.2688491e-05 -2.9411604e-03 0.0000000e+00 
-2.2708454e-05 -2.9411552e-03 0.0000000e+00 
1.7268084e-05 -2.9411981e-03 0.0000000e+00 
5.7248026e-05 -2.9412749e-03 0.0000000e+00 
-6.2972885e-05 -2.9945482e-03 0.0000000e+00 
-2.2839279e-05 -2.9945674e-03 0.0000000e+00 
1.7290784e-05 -2.9946190e-03 0.0000000e+00 
5.7424190e-05 -2.9947175e-03 0.0000000e+00 
-6.3249835e-05 -3.0481909e-03 0.0000000e+00 
-2.2967952e-05 -3.0481891e-03 0.0000000e+00 
1.7310501e-05 -3.0482326e-03 0.0000000e+00 
5.7592301e-05 -3.0483072e-03 0.0000000e+00 
-6.3519456e-05 -3.1019741e-03 0.0000000e+00 
-2.3094355e-05 -3.1019967e-03 0.0000000e+00 
1.7327292e-05 -3.1020490e-03 0.0000000e+00 
5.7752238e-05 -3.1021455e-03 0.0000000e+00 
-6.3781827e-05 -3.1559987e-03 0.0000000e+00 
-2.3218616e-05 -3.1560001e-03 0.0000000e+00 
1.7341193e-05 -3.1560443e-03 0.0000000e+00 
5.7904232e-05 -3.1561168e-03 0.0000000e+00 
-6.4037063e-05 -3.2101501e-03 0.0000000e+00 
-2.3340665e-05 -3.2101758e-03 0.0000000e+00 
1.7352214e-05 -3.2102287e-03 0.0000000e+00 
5.8048179e-05 -3.2103231e-03 0.0000000e+00 
-6.4284404e-05 -3.2645298e-03 0.0000000e+00 
-2.3461115e-05 -3.2645347e-03 0.0000000e+00 
1.7359921e-05 -3.2645780e-03 0.0000000e+00 
5.8185166e-05 -3.2646488e-03 0.0000000e+00 
-6.4523087e-05 -3.3190220e-03 0.0000000e+00 
-2.3580105e-05 -3.3190493e-03 0.0000000e+00 
1.7364086e-05 -3.3191064e-03 0.0000000e+00 
5.8315985e-05 -3.3191973e-03 0.0000000e+00 
-6.4758765e-05 -3.3737025e-03 0.0000000e+00 
-2.3688577e-05 -3.3737315e-03 0.0000000e+00 
1.7374021e-05 -3.3737889e-03 0.0000000e+00 
5.8435253e-05 -3.3738789e-03 0.0000000e+00 
-6.4983804e-05 -3.4285655e-03 0.0000000e+00 
-2.3803472e-05 -3.4285748e-03 0.0000000e+00 
1.7372772e-05 -3.4286189e-03 0.0000000e+00 
5.8551022e-05 -3.4286866e-03 0.0000000e+00 
-6.5203671e-05 -3.4835212e-03 0.0000000e+00 
-2.3915606e-05 -3.4835547e-03 0.0000000e+00 
1.7369595e-05 -3.4836090e-03 0.0000000e+00 
5.8657986e-05 -3.4836987e-03 0.0000000e+00 
-6.5417916e-05 -3.5386741e-03 0.0000000e+00 
-2.4025325e-05 -3.5386859e-03 0.0000000e+00 
1.7364340e-05 -3.5387318e-03 0.0000000e+00 
5.8756971e-05 -3.5387972e-03 0.0000000e+00 
-6.5625545e-05 -3.5939081e-03 0.0000000e+00 
-2.4133053e-05 -3.5939446e-03 0.0000000e+00 
1.7356537e-05 -3.5939994e-03 0.0000000e+00 
5.8849071e-05 -3.5940875e-03 0.0000000e+00 
-6.5826968e-05 -3.6493277e-03 0.0000000e+00 
-2.4238928e-05 -3.6493421e-03 0.0000000e+00 
1.7346255e-05 -3.6493884e-03 0.0000000e+00 
5.8934251e-05 -3.6494518e-03 0.0000000e+00 
-6.6022065e-05 -3.7048160e-03 0.0000000e+00 
-2.4342892e-05 -3.7048553e-03 0.0000000e+00 
1.7333505e-05 -3.7049105e-03 0.0000000e+00 
5.9012750e-05 -3.7049968e-03 0.0000000e+00 
-6.6211233e-05 -3.7604788e-03 0.0000000e+00 
-2.4445049e-05 -3.7604958e-03 0.0000000e+00 
1.7318400e-05 -3.7605425e-03 0.0000000e+00 
5.9084556e-05 -3.7606040e-03 0.0000000e+00 
-6.6394303e-05 -3.8161988e-03 0.0000000e+00 
-2.4545364e-05 -3.8162407e-03 0.0000000e+00 
1.7300931e-05 -3.8162963e-03 0.0000000e+00 
5.9149974e-05 -3.8163808e-03 0.0000000e+00 
-6.6571703e-05 -3.8720824e-03 0.0000000e+00 
-2.4643942e-05 -3.8721018e-03 0.0000000e+00 
1.7281214e-05 -3.8721489e-03 0.0000000e+00 
5.9208965e-05 -3.8722086e-03 0.0000000e+00 
-6.6743249e-05 -3.9280122e-03 0.0000000e+00 
-2.4740750e-05 -3.9280566e-03 0.0000000e+00 
1.7259240e-05 -3.9281126e-03 0.0000000e+00 
5.9261871e-05 -3.9281954e-03 0.0000000e+00 
-6.6909425e-05 -3.9840953e-03 0.0000000e+00 
-2.4835877e-05 -3.9841170e-03 0.0000000e+00 
1.7235148e-05 -3.9841644e-03 0.0000000e+00 
5.9308599e-05 -3.9842223e-03 0.0000000e+00 
-6.7070080e-05 -4.0402143e-03 0.0000000e+00 
-2.4929325e-05 -4.0402607e-03 0.0000000e+00 
1.7208893e-05 -4.0403170e-03 0.0000000e+00 
5.9349477e-05 -4.0403980e-03 0.0000000e+00 
-6.7224791e-05 -4.0964765e-03 0.0000000e+00 
-2.5021697e-05 -4.0965008e-03 0.0000000e+00 
1.7180113e-05 -4.0965470e-03 0.0000000e+00 
5.9385314e-05 -4.0966036e-03 0.0000000e+00 
-6.7372510e-05 -4.1527639e-03 0.0000000e+00 
-2.5113206e-05 -4.1528110e-03 0.0000000e+00 
1.7148508e-05 -4.1528713e-03 0.0000000e+00 
5.9417355e-05 -4.1529491e-03 0.0000000e+00 