# vtk DataFile Version 4.0
vtk output
ASCII
DATASET UNSTRUCTURED_GRID
POINTS 604 float
5.5000000e+00 5.9700000e+00 0.0000000e+00 
5.5000000e+00 5.9900000e+00 0.0000000e+00 
5.5266667e+00 5.9700000e+00 0.0000000e+00 
5.5266667e+00 5.9900000e+00 0.0000000e+00 
5.5000000e+00 6.0100000e+00 0.0000000e+00 
5.5266667e+00 6.0100000e+00 0.0000000e+00 
5.5533333e+00 5.9700000e+00 0.0000000e+00 
5.5533333e+00 5.9900000e+00 0.0000000e+00 
5.5000000e+00 6.0300000e+00 0.0000000e+00 
5.5266667e+00 6.0300000e+00 0.0000000e+00 
5.5533333e+00 6.0100000e+00 0.0000000e+00 
5.5800000e+00 5.9700000e+00 0.0000000e+00 
5.5533333e+00 6.0300000e+00 0.0000000e+00 
5.5800000e+00 5.9900000e+00 0.0000000e+00 
5.5800000e+00 6.0100000e+00 0.0000000e+00 
5.5800000e+00 6.0300000e+00 0.0000000e+00 
5.6066667e+00 5.9700000e+00 0.0000000e+00 
5.6066667e+00 5.9900000e+00 0.0000000e+00 
5.6066667e+00 6.0100000e+00 0.0000000e+00 
5.6066667e+00 6.0300000e+00 0.0000000e+00 
5.6333333e+00 5.9700000e+00 0.0000000e+00 
5.6333333e+00 5.9900000e+00 0.0000000e+00 
5.6333333e+00 6.0100000e+00 0.0000000e+00 
5.6333333e+00 6.0300000e+00 0.0000000e+00 
5.6600000e+00 5.9700000e+00 0.0000000e+00 
5.6600000e+00 5.9900000e+00 0.0000000e+00 
5.6600000e+00 6.0100000e+00 0.0000000e+00 
5.6600000e+00 6.0300000e+00 0.0000000e+00 
5.6866667e+00 5.9700000e+00 0.0000000e+00 
5.6866667e+00 5.9900000e+00 0.0000000e+00 
5.6866667e+00 6.0100000e+00 0.0000000e+00 
5.6866667e+00 6.0300000e+00 0.0000000e+00 
5.7133333e+00 5.9700000e+00 0.0000000e+00 
5.7133333e+00 5.9900000e+00 0.0000000e+00 
5.7133333e+00 6.0100000e+00 0.0000000e+00 
5.7133333e+00 6.0300000e+00 0.0000000e+00 
5.7400000e+00 5.9700000e+00 0.0000000e+00 
5.7400000e+00 5.9900000e+00 0.0000000e+00 
5.7400000e+00 6.0100000e+00 0.0000000e+00 
5.7400000e+00 6.0300000e+00 0.0000000e+00 
5.7666667e+00 5.9700000e+00 0.0000000e+00 
5.7666667e+00 5.9900000e+00 0.0000000e+00 
5.7666667e+00 6.0100000e+00 0.0000000e+00 
5.7666667e+00 6.0300000e+00 0.0000000e+00 
5.7933333e+00 5.9700000e+00 0.0000000e+00 
5.7933333e+00 5.9900000e+00 0.0000000e+00 
5.7933333e+00 6.0100000e+00 0.0000000e+00 
5.7933333e+00 6.0300000e+00 0.0000000e+00 
5.8200000e+00 5.9700000e+00 0.0000000e+00 
5.8200000e+00 5.9900000e+00 0.0000000e+00 
5.8200000e+00 6.0100000e+00 0.0000000e+00 
5.8200000e+00 6.0300000e+00 0.0000000e+00 
5.8466667e+00 5.9700000e+00 0.0000000e+00 
5.8466667e+00 5.9900000e+00 0.0000000e+00 
5.8466667e+00 6.0100000e+00 0.0000000e+00 
5.8466667e+00 6.0300000e+00 0.0000000e+00 
5.8733333e+00 5.9700000e+00 0.0000000e+00 
5.8733333e+00 5.9900000e+00 0.0000000e+00 
5.8733333e+00 6.0100000e+00 0.0000000e+00 
5.8733333e+00 6.0300000e+00 0.0000000e+00 
5.9000000e+00 5.9700000e+00 0.0000000e+00 
5.9000000e+00 5.9900000e+00 0.0000000e+00 
5.9000000e+00 6.0100000e+00 0.0000000e+00 
5.9000000e+00 6.0300000e+00 0.0000000e+00 
5.9266667e+00 5.9700000e+00 0.0000000e+00 
5.9266667e+00 5.9900000e+00 0.0000000e+00 
5.9266667e+00 6.0100000e+00 0.0000000e+00 
5.9266667e+00 6.0300000e+00 0.0000000e+00 
5.9533333e+00 5.9700000e+00 0.0000000e+00 
5.9533333e+00 5.9900000e+00 0.0000000e+00 
5.9533333e+00 6.0100000e+00 0.0000000e+00 
5.9533333e+00 6.0300000e+00 0.0000000e+00 
5.9800000e+00 5.9700000e+00 0.0000000e+00 
5.9800000e+00 5.9900000e+00 0.0000000e+00 
5.9800000e+00 6.0100000e+00 0.0000000e+00 
5.9800000e+00 6.0300000e+00 0.0000000e+00 
6.0066667e+00 5.9700000e+00 0.0000000e+00 
6.0066667e+00 5.9900000e+00 0.0000000e+00 
6.0066667e+00 6.0100000e+00 0.0000000e+00 
6.0066667e+00 6.0300000e+00 0.0000000e+00 
6.0333333e+00 5.9700000e+00 0.0000000e+00 
6.0333333e+00 5.9900000e+00 0.0000000e+00 
6.0333333e+00 6.0100000e+00 0.0000000e+00 
6.0333333e+00 6.0300000e+00 0.0000000e+00 
6.0600000e+00 5.9700000e+00 0.0000000e+00 
6.0600000e+00 5.9900000e+00 0.0000000e+00 
6.0600000e+00 6.0100000e+00 0.0000000e+00 
6.0600000e+00 6.0300000e+00 0.0000000e+00 
6.0866667e+00 5.9700000e+00 0.0000000e+00 
6.0866667e+00 5.9900000e+00 0.0000000e+00 
6.0866667e+00 6.0100000e+00 0.0000000e+00 
6.0866667e+00 6.0300000e+00 0.0000000e+00 
6.1133333e+00 5.9700000e+00 0.0000000e+00 
6.1133333e+00 5.9900000e+00 0.0000000e+00 
6.1133333e+00 6.0100000e+00 0.0000000e+00 
6.1133333e+00 6.0300000e+00 0.0000000e+00 
6.1400000e+00 5.9700000e+00 0.0000000e+00 
6.1400000e+00 5.9900000e+00 0.0000000e+00 
6.1400000e+00 6.0100000e+00 0.0000000e+00 
6.1400000e+00 6.0300000e+00 0.0000000e+00 
6.1666667e+00 5.9700000e+00 0.0000000e+00 
6.1666667e+00 5.9900000e+00 0.0000000e+00 
6.1666667e+00 6.0100000e+00 0.0000000e+00 
6.1666667e+00 6.0300000e+00 0.0000000e+00 
6.1933333e+00 5.9700000e+00 0.0000000e+00 
6.1933333e+00 5.9900000e+00 0.0000000e+00 
6.1933333e+00 6.0100000e+00 0.0000000e+00 
6.1933333e+00 6.0300000e+00 0.0000000e+00 
6.2200000e+00 5.9700000e+00 0.0000000e+00 
6.2200000e+00 5.9900000e+00 0.0000000e+00 
6.2200000e+00 6.0100000e+00 0.0000000e+00 
6.2200000e+00 6.0300000e+00 0.0000000e+00 
6.2466667e+00 5.9700000e+00 0.0000000e+00 
6.2466667e+00 5.9900000e+00 0.0000000e+00 
6.2466667e+00 6.0100000e+00 0.0000000e+00 
6.2466667e+00 6.0300000e+00 0.0000000e+00 
6.2733333e+00 5.9700000e+00 0.0000000e+00 
6.2733333e+00 5.9900000e+00 0.0000000e+00 
6.2733333e+00 6.0100000e+00 0.0000000e+00 
6.2733333e+00 6.0300000e+00 0.0000000e+00 
6.3000000e+00 5.9700000e+00 0.0000000e+00 
6.3000000e+00 5.9900000e+00 0.0000000e+00 
6.3000000e+00 6.0100000e+00 0.0000000e+00 
6.3000000e+00 6.0300000e+00 0.0000000e+00 
6.3266667e+00 5.9700000e+00 0.0000000e+00 
6.3266667e+00 5.9900000e+00 0.0000000e+00 
6.3266667e+00 6.0100000e+00 0.0000000e+00 
6.3266667e+00 6.0300000e+00 0.0000000e+00 
6.3533333e+00 5.9700000e+00 0.0000000e+00 
6.3533333e+00 5.9900000e+00 0.0000000e+00 
6.3533333e+00 6.0100000e+00 0.0000000e+00 
6.3533333e+00 6.0300000e+00 0.0000000e+00 
6.3800000e+00 5.9700000e+00 0.0000000e+00 
6.3800000e+00 5.9900000e+00 0.0000000e+00 
6.3800000e+00 6.0100000e+00 0.0000000e+00 
6.3800000e+00 6.0300000e+00 0.0000000e+00 
6.4066667e+00 5.9700000e+00 0.0000000e+00 
6.4066667e+00 5.9900000e+00 0.0000000e+00 
6.4066667e+00 6.0100000e+00 0.0000000e+00 
6.4066667e+00 6.0300000e+00 0.0000000e+00 
6.4333333e+00 5.9700000e+00 0.0000000e+00 
6.4333333e+00 5.9900000e+00 0.0000000e+00 
6.4333333e+00 6.0100000e+00 0.0000000e+00 
6.4333333e+00 6.0300000e+00 0.0000000e+00 
6.4600000e+00 5.9700000e+00 0.0000000e+00 
6.4600000e+00 5.9900000e+00 0.0000000e+00 
6.4600000e+00 6.0100000e+00 0.0000000e+00 
6.4600000e+00 6.0300000e+00 0.0000000e+00 
6.4866667e+00 5.9700000e+00 0.0000000e+00 
6.4866667e+00 5.9900000e+00 0.0000000e+00 
6.4866667e+00 6.0100000e+00 0.0000000e+00 
6.4866667e+00 6.0300000e+00 0.0000000e+00 
6.5133333e+00 5.9700000e+00 0.0000000e+00 
6.5133333e+00 5.9900000e+00 0.0000000e+00 
6.5133333e+00 6.0100000e+00 0.0000000e+00 
6.5133333e+00 6.0300000e+00 0.0000000e+00 
6.5400000e+00 5.9700000e+00 0.0000000e+00 
6.5400000e+00 5.9900000e+00 0.0000000e+00 
6.5400000e+00 6.0100000e+00 0.0000000e+00 
6.5400000e+00 6.0300000e+00 0.0000000e+00 
6.5666667e+00 5.9700000e+00 0.0000000e+00 
6.5666667e+00 5.9900000e+00 0.0000000e+00 
6.5666667e+00 6.0100000e+00 0.0000000e+00 
6.5666667e+00 6.0300000e+00 0.0000000e+00 
6.5933333e+00 5.9700000e+00 0.0000000e+00 
6.5933333e+00 5.9900000e+00 0.0000000e+00 
6.5933333e+00 6.0100000e+00 0.0000000e+00 
6.5933333e+00 6.0300000e+00 0.0000000e+00 
6.6200000e+00 5.9700000e+00 0.0000000e+00 
6.6200000e+00 5.9900000e+00 0.0000000e+00 
6.6200000e+00 6.0100000e+00 0.0000000e+00 
6.6200000e+00 6.0300000e+00 0.0000000e+00 
6.6466667e+00 5.9700000e+00 0.0000000e+00 
6.6466667e+00 5.9900000e+00 0.0000000e+00 
6.6466667e+00 6.0100000e+00 0.0000000e+00 
6.6466667e+00 6.0300000e+00 0.0000000e+00 
6.6733333e+00 5.9700000e+00 0.0000000e+00 
6.6733333e+00 5.9900000e+00 0.0000000e+00 
6.6733333e+00 6.0100000e+00 0.0000000e+00 
6.6733333e+00 6.0300000e+00 0.0000000e+00 
6.7000000e+00 5.9700000e+00 0.0000000e+00 
6.7000000e+00 5.9900000e+00 0.0000000e+00 
6.7000000e+00 6.0100000e+00 0.0000000e+00 
6.7000000e+00 6.0300000e+00 0.0000000e+00 
6.7266667e+00 5.9700000e+00 0.0000000e+00 
6.7266667e+00 5.9900000e+00 0.0000000e+00 
6.7266667e+00 6.0100000e+00 0.0000000e+00 
6.7266667e+00 6.0300000e+00 0.0000000e+00 
6.7533333e+00 5.9700000e+00 0.0000000e+00 
6.7533333e+00 5.9900000e+00 0.0000000e+00 
6.7533333e+00 6.0100000e+00 0.0000000e+00 
6.7533333e+00 6.0300000e+00 0.0000000e+00 
6.7800000e+00 5.9700000e+00 0.0000000e+00 
6.7800000e+00 5.9900000e+00 0.0000000e+00 
6.7800000e+00 6.0100000e+00 0.0000000e+00 
6.7800000e+00 6.0300000e+00 0.0000000e+00 
6.8066667e+00 5.9700000e+00 0.0000000e+00 
6.8066667e+00 5.9900000e+00 0.0000000e+00 
6.8066667e+00 6.0100000e+00 0.0000000e+00 
6.8066667e+00 6.0300000e+00 0.0000000e+00 
6.8333333e+00 5.9700000e+00 0.0000000e+00 
6.8333333e+00 5.9900000e+00 0.0000000e+00 
6.8333333e+00 6.0100000e+00 0.0000000e+00 
6.8333333e+00 6.0300000e+00 0.0000000e+00 
6.8600000e+00 5.9700000e+00 0.0000000e+00 
6.8600000e+00 5.9900000e+00 0.0000000e+00 
6.8600000e+00 6.0100000e+00 0.0000000e+00 
6.8600000e+00 6.0300000e+00 0.0000000e+00 
6.8866667e+00 5.9700000e+00 0.0000000e+00 
6.8866667e+00 5.9900000e+00 0.0000000e+00 
6.8866667e+00 6.0100000e+00 0.0000000e+00 
6.8866667e+00 6.0300000e+00 0.0000000e+00 
6.9133333e+00 5.9700000e+00 0.0000000e+00 
6.9133333e+00 5.9900000e+00 0.0000000e+00 
6.9133333e+00 6.0100000e+00 0.0000000e+00 
6.9133333e+00 6.0300000e+00 0.0000000e+00 
6.9400000e+00 5.9700000e+00 0.0000000e+00 
6.9400000e+00 5.9900000e+00 0.0000000e+00 
6.9400000e+00 6.0100000e+00 0.0000000e+00 
6.9400000e+00 6.0300000e+00 0.0000000e+00 
6.9666667e+00 5.9700000e+00 0.0000000e+00 
6.9666667e+00 5.9900000e+00 0.0000000e+00 
6.9666667e+00 6.0100000e+00 0.0000000e+00 
6.9666667e+00 6.0300000e+00 0.0000000e+00 
6.9933333e+00 5.9700000e+00 0.0000000e+00 
6.9933333e+00 5.9900000e+00 0.0000000e+00 
6.9933333e+00 6.0100000e+00 0.0000000e+00 
6.9933333e+00 6.0300000e+00 0.0000000e+00 
7.0200000e+00 5.9700000e+00 0.0000000e+00 
7.0200000e+00 5.9900000e+00 0.0000000e+00 
[...]
POINT_DATA 604
FIELD FieldData 2
DISPLACEMENT 3 604  float
0.0000000e+00 0.0000000e+00 0.0000000e+00 
0.0000000e+00 0.0000000e+00 0.0000000e+00 
2.3456778e-04 1.4356410e-04 0.0000000e+00 
7.3885850e-05 9.3199446e-05 0.0000000e+00 
0.0000000e+00 0.0000000e+00 0.0000000e+00 
-7.5994499e-05 9.2279766e-05 0.0000000e+00 
4.7111569e-04 4.6115737e-04 0.0000000e+00 
1.5468506e-04 4.1768238e-04 0.0000000e+00 
0.0000000e+00 0.0000000e+00 0.0000000e+00 
-2.3718718e-04 1.4098571e-04 0.0000000e+00 
-1.6217478e-04 4.1479081e-04 0.0000000e+00 
7.0090290e-04 9.9809204e-04 0.0000000e+00 
-4.7989029e-04 4.5293034e-04 0.0000000e+00 
2.2682589e-04 9.5115305e-04 0.0000000e+00 
-2.4632106e-04 9.4515011e-04 0.0000000e+00 
-7.2241304e-04 9.8028726e-04 0.0000000e+00 
9.2165415e-04 1.7438575e-03 0.0000000e+00 
2.9326940e-04 1.6935647e-03 0.0000000e+00 
-3.3468636e-04 1.6833726e-03 0.0000000e+00 
-9.6565968e-04 1.7136029e-03 0.0000000e+00 
1.1320018e-03 2.6960394e-03 0.0000000e+00 
3.5188940e-04 2.6409576e-03 0.0000000e+00 
-4.2807097e-04 2.6253595e-03 0.0000000e+00 
-1.2113425e-03 2.6493798e-03 0.0000000e+00 
1.3305399e-03 3.8503677e-03 0.0000000e+00 
4.0134929e-04 3.7896977e-03 0.0000000e+00 
-5.2797936e-04 3.7678059e-03 0.0000000e+00 
-1.4608928e-03 3.7848798e-03 0.0000000e+00 
1.5159641e-03 5.2036519e-03 0.0000000e+00 
4.4025645e-04 5.1362986e-03 0.0000000e+00 
-6.3581044e-04 5.1070504e-03 0.0000000e+00 
-1.7156248e-03 5.1160672e-03 0.0000000e+00 
1.6869937e-03 6.7523100e-03 0.0000000e+00 
4.6744858e-04 6.6772346e-03 0.0000000e+00 
-7.5272058e-04 6.6396270e-03 0.0000000e+00 
-1.9768903e-03 6.6395132e-03 0.0000000e+00 
1.8425225e-03 8.4923474e-03 0.0000000e+00 
4.8169607e-04 8.4089185e-03 0.0000000e+00 
-8.7998507e-04 8.3622307e-03 0.0000000e+00 
-2.2458817e-03 8.3524400e-03 0.0000000e+00 
1.9813945e-03 1.0420811e-02 0.0000000e+00 
4.8188153e-04 1.0327963e-02 0.0000000e+00 
-1.0187111e-03 1.0271265e-02 0.0000000e+00 
-2.5237123e-03 1.0250655e-02 0.0000000e+00 
2.1026314e-03 1.2533586e-02 0.0000000e+00 
4.6696933e-04 1.2430809e-02 0.0000000e+00 
-1.1699663e-03 1.2363448e-02 0.0000000e+00 
-2.8114924e-03 1.2331602e-02 0.0000000e+00 
2.2052126e-03 1.4827768e-02 0.0000000e+00 
4.3598198e-04 1.4714087e-02 0.0000000e+00 
-1.3347230e-03 1.4635243e-02 0.0000000e+00 
-3.1101849e-03 1.4591109e-02 0.0000000e+00 
2.2883116e-03 1.7299267e-02 0.0000000e+00 
3.8801699e-04 1.7174281e-02 0.0000000e+00 
-1.5139200e-03 1.7083403e-02 0.0000000e+00 
-3.4207709e-03 1.7026671e-02 0.0000000e+00 
2.3510311e-03 1.9945239e-02 0.0000000e+00 
3.2222654e-04 1.9808064e-02 0.0000000e+00 
-1.7083972e-03 1.9704424e-02 0.0000000e+00 
-3.7440752e-03 1.9634135e-02 0.0000000e+00 
2.3926816e-03 2.2761627e-02 0.0000000e+00 
2.3783761e-04 2.2611959e-02 0.0000000e+00 
-1.9189691e-03 2.2495104e-02 0.0000000e+00 
-4.0809634e-03 2.2411047e-02 0.0000000e+00 
2.4124830e-03 2.5745646e-02 0.0000000e+00 
1.3412459e-04 2.5582687e-02 0.0000000e+00 
-2.1463503e-03 2.5451978e-02 0.0000000e+00 
-4.4321285e-03 2.5353279e-02 0.0000000e+00 
2.4098744e-03 2.8893274e-02 0.0000000e+00 
1.0436627e-05 2.8716814e-02 0.0000000e+00 
-2.3912385e-03 2.8571887e-02 0.0000000e+00 
-4.7983281e-03 2.8458430e-02 0.0000000e+00 
2.3841867e-03 3.2201788e-02 0.0000000e+00 
-1.3383726e-04 3.2011109e-02 0.0000000e+00 
-2.6542303e-03 3.1851411e-02 0.0000000e+00 
-5.1801297e-03 3.1722402e-02 0.0000000e+00 
2.3349798e-03 3.5667208e-02 0.0000000e+00 
-2.9923258e-04 3.5462185e-02 0.0000000e+00 
-2.9359128e-03 3.5287436e-02 0.0000000e+00 
-5.5781893e-03 3.5142846e-02 0.0000000e+00 
2.2616828e-03 3.9286867e-02 0.0000000e+00 
-4.8624968e-04 3.9066867e-02 0.0000000e+00 
-3.2367683e-03 3.8876583e-02 0.0000000e+00 
-5.9929631e-03 3.8715701e-02 0.0000000e+00 
2.1639633e-03 4.3056825e-02 0.0000000e+00 
-6.9531131e-04 4.2821791e-02 0.0000000e+00 
-3.5572827e-03 4.2615816e-02 0.0000000e+00 
-6.4250178e-03 4.2438670e-02 0.0000000e+00 
2.0414316e-03 4.6974326e-02 0.0000000e+00 
-9.2687324e-04 4.6723826e-02 0.0000000e+00 
-3.8979135e-03 4.6501780e-02 0.0000000e+00 
-6.8746938e-03 4.6307946e-02 0.0000000e+00 
1.8937285e-03 5.1036160e-02 0.0000000e+00 
-1.1811716e-03 5.0769821e-02 0.0000000e+00 
-4.2588985e-03 5.0531367e-02 0.0000000e+00 
-7.3424475e-03 5.0320420e-02 0.0000000e+00 
1.7206762e-03 5.5238664e-02 0.0000000e+00 
-1.4585445e-03 5.4956535e-02 0.0000000e+00 
-4.6406556e-03 5.4701618e-02 0.0000000e+00 
-7.8286400e-03 5.4473699e-02 0.0000000e+00 
1.5219334e-03 5.9579346e-02 0.0000000e+00 
-1.7592645e-03 5.9280963e-02 0.0000000e+00 
-5.0434181e-03 5.9009276e-02 0.0000000e+00 
-8.3334655e-03 5.8763849e-02 0.0000000e+00 
1.2974119e-03 6.4054427e-02 0.0000000e+00 
-2.0835190e-03 6.3739917e-02 0.0000000e+00 
-5.4674413e-03 6.3451430e-02 0.0000000e+00 
-8.8572876e-03 6.3188717e-02 0.0000000e+00 
1.0468576e-03 6.8661465e-02 0.0000000e+00 
-2.4314910e-03 6.8330424e-02 0.0000000e+00 
-5.9128817e-03 6.8024901e-02 0.0000000e+00 
-9.4002000e-03 6.7744425e-02 0.0000000e+00 
7.7027693e-04 7.3396742e-02 0.0000000e+00 
-2.8032885e-03 7.3049357e-02 0.0000000e+00 
-6.3799160e-03 7.2726828e-02 0.0000000e+00 
-9.9624872e-03 7.2428873e-02 0.0000000e+00 
4.6749032e-04 7.8257868e-02 0.0000000e+00 
-3.1990160e-03 7.7893797e-02 0.0000000e+00 
-6.8686206e-03 7.7554087e-02 0.0000000e+00 
-1.0544156e-02 7.7238234e-02 0.0000000e+00 
1.3858551e-04 8.3241192e-02 0.0000000e+00 
-3.6187040e-03 8.2860675e-02 0.0000000e+00 
-7.3790969e-03 8.2503868e-02 0.0000000e+00 
-1.1145423e-02 8.2170457e-02 0.0000000e+00 
-2.1654745e-04 8.8344376e-02 0.0000000e+00 
-4.0623840e-03 8.7947129e-02 0.0000000e+00 
-7.9113469e-03 8.7573104e-02 0.0000000e+00 
-1.1766216e-02 8.7221773e-02 0.0000000e+00 
-5.9774535e-04 9.3563838e-02 0.0000000e+00 
-4.5300151e-03 9.3150148e-02 0.0000000e+00 
-8.4654027e-03 9.2759041e-02 0.0000000e+00 
-1.2406686e-02 9.2390177e-02 0.0000000e+00 
-1.0050540e-03 9.8897290e-02 0.0000000e+00 
-5.0215618e-03 9.8466926e-02 0.0000000e+00 
-9.0411977e-03 9.8058669e-02 0.0000000e+00 
-1.3066688e-02 9.7671964e-02 0.0000000e+00 
-1.4382408e-03 1.0434122e-01 0.0000000e+00 
-5.5369172e-03 1.0389451e-01 0.0000000e+00 
-9.6386999e-03 1.0346929e-01 0.0000000e+00 
-1.3746314e-02 1.0306517e-01 0.0000000e+00 
-1.8972982e-03 1.0989339e-01 0.0000000e+00 
-6.0759814e-03 1.0943017e-01 0.0000000e+00 
-1.0257776e-02 1.0898794e-01 0.0000000e+00 
-1.4445358e-02 1.0856616e-01 0.0000000e+00 
-2.3819346e-03 1.1555036e-01 0.0000000e+00 
-6.6385806e-03 1.1507097e-01 0.0000000e+00 
-1.0898339e-02 1.1461201e-01 0.0000000e+00 
-1.5163863e-02 1.1417301e-01 0.0000000e+00 
-2.8919950e-03 1.2130980e-01 0.0000000e+00 
-7.2246089e-03 1.2081423e-01 0.0000000e+00 
-1.1560274e-02 1.2033857e-01 0.0000000e+00 
-1.5901577e-02 1.1988235e-01 0.0000000e+00 
-3.4272918e-03 1.2716896e-01 0.0000000e+00 
-7.8337718e-03 1.2665726e-01 0.0000000e+00 
-1.2243290e-02 1.2616496e-01 0.0000000e+00 
-1.6658423e-02 1.2569150e-01 0.0000000e+00 
-3.9874694e-03 1.3312471e-01 0.0000000e+00 
-8.4658819e-03 1.3259727e-01 0.0000000e+00 
-1.2947296e-02 1.3208866e-01 0.0000000e+00 
-1.7434284e-02 1.3159845e-01 0.0000000e+00 
-4.5724003e-03 1.3917496e-01 0.0000000e+00 
-9.1207216e-03 1.3863171e-01 0.0000000e+00 
-1.3672021e-02 1.3810684e-01 0.0000000e+00 
-1.8228813e-02 1.3759975e-01 0.0000000e+00 
-5.1816648e-03 1.4531648e-01 0.0000000e+00 
-9.7979988e-03 1.4475786e-01 0.0000000e+00 
-1.4417254e-02 1.4421704e-01 0.0000000e+00 
-1.9041949e-02 1.4369361e-01 0.0000000e+00 
-5.8150887e-03 1.5154722e-01 0.0000000e+00 
-1.0497444e-02 1.5097319e-01 0.0000000e+00 
-1.5182692e-02 1.5041654e-01 0.0000000e+00 
-1.9873290e-02 1.4987665e-01 0.0000000e+00 
-6.4722009e-03 1.5786402e-01 0.0000000e+00 
-1.1218730e-02 1.5727505e-01 0.0000000e+00 
-1.5968085e-02 1.5670290e-01 0.0000000e+00 
-2.0722730e-02 1.5614712e-01 0.0000000e+00 
-7.1527916e-03 1.6426489e-01 0.0000000e+00 
-1.1961545e-02 1.6366099e-01 0.0000000e+00 
-1.6773089e-02 1.6307348e-01 0.0000000e+00 
-2.1589826e-02 1.6250172e-01 0.0000000e+00 
-7.8563495e-03 1.7074675e-01 0.0000000e+00 
-1.2725526e-02 1.7012840e-01 0.0000000e+00 
-1.7597419e-02 1.6952589e-01 0.0000000e+00 
-2.2474440e-02 1.6893876e-01 0.0000000e+00 
-8.5826325e-03 1.7730765e-01 0.0000000e+00 
-1.3510327e-02 1.7667488e-01 0.0000000e+00 
-1.8440697e-02 1.7605754e-01 0.0000000e+00 
-2.3376090e-02 1.7545499e-01 0.0000000e+00 
-9.3310936e-03 1.8394459e-01 0.0000000e+00 
-1.4315550e-02 1.8329791e-01 0.0000000e+00 
-1.9302603e-02 1.8266612e-01 0.0000000e+00 
-2.4294607e-02 1.8204876e-01 0.0000000e+00 
-1.0101462e-02 1.9065568e-01 0.0000000e+00 
-1.5140820e-02 1.8999515e-01 0.0000000e+00 
-2.0182729e-02 1.8934910e-01 0.0000000e+00 
-2.5229477e-02 1.8871689e-01 0.0000000e+00 
-1.0893161e-02 1.9743799e-01 0.0000000e+00 
-1.5985712e-02 1.9676412e-01 0.0000000e+00 
-2.1080728e-02 1.9610422e-01 0.0000000e+00 
-2.6180507e-02 1.9545780e-01 0.0000000e+00 
-1.1705899e-02 2.0428966e-01 0.0000000e+00 
-1.6849820e-02 2.0360255e-01 0.0000000e+00 
-2.1996161e-02 2.0292900e-01 0.0000000e+00 
-2.7147157e-02 2.0226836e-01 0.0000000e+00 
-1.2539074e-02 2.1120786e-01 0.0000000e+00 
-1.7732687e-02 2.1050803e-01 0.0000000e+00 
-2.2928662e-02 2.0982127e-01 0.0000000e+00 
-2.8129216e-02 2.0914705e-01 0.0000000e+00 
-1.3392284e-02 2.1819067e-01 0.0000000e+00 
-1.8633930e-02 2.1747831e-01 0.0000000e+00 
-2.3877838e-02 2.1677859e-01 0.0000000e+00 
-2.9126153e-02 2.1609100e-01 0.0000000e+00 
-1.4265078e-02 2.2523584e-01 0.0000000e+00 
-1.9553018e-02 2.2451119e-01 0.0000000e+00 
-2.4843163e-02 2.2379878e-01 0.0000000e+00 
-3.0137641e-02 2.2309798e-01 0.0000000e+00 
-1.5156858e-02 2.3234081e-01 0.0000000e+00 
-2.0489525e-02 2.3160441e-01 0.0000000e+00 
-2.5824313e-02 2.3087976e-01 0.0000000e+00 
-3.1163352e-02 2.3016639e-01 0.0000000e+00 
-1.6067296e-02 2.3950390e-01 0.0000000e+00 
-2.1443013e-02 2.3875586e-01 0.0000000e+00 
-2.6820795e-02 2.3801921e-01 0.0000000e+00 
-3.2202702e-02 2.3729331e-01 0.0000000e+00 
-1.6995750e-02 2.4672246e-01 0.0000000e+00 
-2.2412992e-02 2.4596333e-01 0.0000000e+00 
-2.7832202e-02 2.4521512e-01 0.0000000e+00 
-3.3255452e-02 2.4447736e-01 0.0000000e+00 
-1.7941875e-02 2.5399486e-01 0.0000000e+00 
-2.3399004e-02 2.5322479e-01 0.0000000e+00 
-2.8858043e-02 2.5246527e-01 0.0000000e+00 
-3.4320993e-02 2.5171568e-01 0.0000000e+00 
-1.8905011e-02 2.6131855e-01 0.0000000e+00 
-2.4400550e-02 2.6053807e-01 0.0000000e+00 
-2.9897901e-02 2.5976770e-01 0.0000000e+00 
-3.5399076e-02 2.5900696e-01 0.0000000e+00 
-1.9884805e-02 2.6869193e-01 0.0000000e+00 
-2.5417163e-02 2.6790121e-01 0.0000000e+00 
-3.0951275e-02 2.6712024e-01 0.0000000e+00 
-3.6489080e-02 2.6634840e-01 0.0000000e+00 
-2.0880588e-02 2.7611254e-01 0.0000000e+00 
-2.6448338e-02 2.7531211e-01 0.0000000e+00 
-3.2017742e-02 2.7452100e-01 0.0000000e+00 
-3.7590751e-02 2.7373874e-01 0.0000000e+00 
-2.1892001e-02 2.8357884e-01 0.0000000e+00 
-2.7493599e-02 2.8276887e-01 0.0000000e+00 
-3.3096794e-02 2.8196788e-01 0.0000000e+00 
-3.8703459e-02 2.8117525e-01 0.0000000e+00 
-2.2918368e-02 2.9108843e-01 0.0000000e+00 
-2.8552438e-02 2.9026946e-01 0.0000000e+00 
-3.4188003e-02 2.8945905e-01 0.0000000e+00 
-3.9826951e-02 2.8865673e-01 0.0000000e+00 
-2.3959330e-02 2.9863985e-01 0.0000000e+00 
-2.9624375e-02 2.9781205e-01 0.0000000e+00 
-3.5290859e-02 2.9699248e-01 0.0000000e+00 
-4.0960591e-02 2.9618053e-01 0.0000000e+00 
-2.5014207e-02 3.0623076e-01 0.0000000e+00 
-3.0708902e-02 3.0539467e-01 0.0000000e+00 
-3.6404934e-02 3.0456640e-01 0.0000000e+00 
-4.2104127e-02 3.0374550e-01 0.0000000e+00 
-2.6082643e-02 3.1385977e-01 0.0000000e+00 
-3.1805536e-02 3.1301556e-01 0.0000000e+00 
-3.7529714e-02 3.1217885e-01 0.0000000e+00 
-4.3256926e-02 3.1134905e-01 0.0000000e+00 
-2.7163963e-02 3.2152461e-01 0.0000000e+00 
-3.2913764e-02 3.2067282e-01 0.0000000e+00 
-3.8664779e-02 3.1982815e-01 0.0000000e+00 
-4.4418743e-02 3.1899011e-01 0.0000000e+00 
-2.8257721e-02 3.2922385e-01 0.0000000e+00 
-3.4033142e-02 3.2836471e-01 0.0000000e+00 
-3.9809682e-02 3.2751236e-01 0.0000000e+00 
-4.5588990e-02 3.2666633e-01 0.0000000e+00 
-2.9363421e-02 3.3695577e-01 0.0000000e+00 
-3.5163116e-02 3.3608956e-01 0.0000000e+00 
-4.0963872e-02 3.3522981e-01 0.0000000e+00 
-4.6767312e-02 3.3437598e-01 0.0000000e+00 
-3.0480437e-02 3.4471841e-01 0.0000000e+00 
-3.6303236e-02 3.4384563e-01 0.0000000e+00 
-4.2127008e-02 3.4297895e-01 0.0000000e+00 
-4.7953385e-02 3.4211797e-01 0.0000000e+00 
-3.1608434e-02 3.5251054e-01 0.0000000e+00 
-3.7453048e-02 3.5163135e-01 0.0000000e+00 
-4.3298586e-02 3.5075799e-01 0.0000000e+00 
-4.9146594e-02 3.4988990e-01 0.0000000e+00 
-3.2746763e-02 3.6033015e-01 0.0000000e+00 
-3.8612069e-02 3.5944506e-01 0.0000000e+00 
-4.4478205e-02 3.5856544e-01 0.0000000e+00 
-5.0346732e-02 3.5769089e-01 0.0000000e+00 
-3.3895090e-02 3.6817606e-01 0.0000000e+00 
-3.9779847e-02 3.6728523e-01 0.0000000e+00 
-4.5665386e-02 3.6639960e-01 0.0000000e+00 
-5.1553182e-02 3.6551863e-01 0.0000000e+00 
-3.5052774e-02 3.7604636e-01 0.0000000e+00 
-4.0955912e-02 3.7515027e-01 0.0000000e+00 
-4.6859739e-02 3.7425905e-01 0.0000000e+00 
-5.2765749e-02 3.7337231e-01 0.0000000e+00 
-3.6219493e-02 3.8393992e-01 0.0000000e+00 
-4.2139822e-02 3.8303874e-01 0.0000000e+00 
-4.8060798e-02 3.8214216e-01 0.0000000e+00 
-5.3983825e-02 3.8124968e-01 0.0000000e+00 
-3.7394616e-02 3.9185492e-01 0.0000000e+00 
-4.3331123e-02 3.9094911e-01 0.0000000e+00 
-4.9268187e-02 3.9004759e-01 0.0000000e+00 
-5.5207231e-02 3.8915000e-01 0.0000000e+00 
-3.8577835e-02 3.9979030e-01 0.0000000e+00 
-4.4529386e-02 3.9888002e-01 0.0000000e+00 
-5.0481454e-02 3.9797378e-01 0.0000000e+00 
-5.6435371e-02 3.9707109e-01 0.0000000e+00 
-3.9768536e-02 4.0774431e-01 0.0000000e+00 
-4.5734171e-02 4.0683001e-01 0.0000000e+00 
-5.1700237e-02 4.0591946e-01 0.0000000e+00 
-5.7668086e-02 4.0501229e-01 0.0000000e+00 
-4.0966422e-02 4.1571596e-01 0.0000000e+00 
-4.6945064e-02 4.1479780e-01 0.0000000e+00 
-5.2924102e-02 4.1388313e-01 0.0000000e+00 
-5.8904791e-02 4.1297150e-01 0.0000000e+00 
-4.2170897e-02 4.2370360e-01 0.0000000e+00 
-4.8161643e-02 4.2278200e-01 0.0000000e+00 
-5.4152702e-02 4.2186361e-01 0.0000000e+00 
-6.0145348e-02 4.2094812e-01 0.0000000e+00 
-4.3381686e-02 4.3170630e-01 0.0000000e+00 
-4.9383510e-02 4.3078140e-01 0.0000000e+00 
-5.5385618e-02 4.2985949e-01 0.0000000e+00 
-6.1389195e-02 4.2894013e-01 0.0000000e+00 
-4.4598212e-02 4.3972247e-01 0.0000000e+00 
-5.0610255e-02 4.3879469e-01 0.0000000e+00 
-5.6622528e-02 4.3786965e-01 0.0000000e+00 
-6.2636213e-02 4.3694700e-01 0.0000000e+00 
-4.5820134e-02 4.4775120e-01 0.0000000e+00 
-5.1841529e-02 4.4682072e-01 0.0000000e+00 
-5.7863095e-02 4.4589275e-01 0.0000000e+00 
-6.3885910e-02 4.4496697e-01 0.0000000e+00 
-4.7047053e-02 4.5579136e-01 0.0000000e+00 
-5.3076900e-02 4.5485836e-01 0.0000000e+00 
-5.9106887e-02 4.5392766e-01 0.0000000e+00 
-6.5138053e-02 4.5299887e-01 0.0000000e+00 
-4.8278471e-02 4.6384165e-01 0.0000000e+00 
-5.4316041e-02 4.6290652e-01 0.0000000e+00 
-6.0353689e-02 4.6197344e-01 0.0000000e+00 
-6.6392469e-02 4.6104218e-01 0.0000000e+00 
-4.9514172e-02 4.7190135e-01 0.0000000e+00 
-5.5558622e-02 4.7096418e-01 0.0000000e+00 
-6.1603133e-02 4.7002889e-01 0.0000000e+00 
-6.7648656e-02 4.6909511e-01 0.0000000e+00 
-5.0753646e-02 4.7996915e-01 0.0000000e+00 
-5.6804302e-02 4.7903030e-01 0.0000000e+00 
-6.2854952e-02 4.7809311e-01 0.0000000e+00 
-6.8906572e-02 4.7715734e-01 0.0000000e+00 
-5.1996694e-02 4.8804440e-01 0.0000000e+00 
-5.8052766e-02 4.8710396e-01 0.0000000e+00 
-6.4108820e-02 4.8616501e-01 0.0000000e+00 
-7.0165727e-02 4.8522720e-01 0.0000000e+00 
-5.3242825e-02 4.9612587e-01 0.0000000e+00 
-5.9303699e-02 4.9518418e-01 0.0000000e+00 
-6.5364492e-02 4.9424376e-01 0.0000000e+00 
-7.1426104e-02 4.9330443e-01 0.0000000e+00 
-5.4491863e-02 5.0421299e-01 0.0000000e+00 
-6.0556808e-02 5.0327011e-01 0.0000000e+00 
-6.6621667e-02 5.0232836e-01 0.0000000e+00 
-7.2687231e-02 5.0138742e-01 0.0000000e+00 
-5.5743342e-02 5.1230462e-01 0.0000000e+00 
-6.1811805e-02 5.1136087e-01 0.0000000e+00 
-6.7880124e-02 5.1041806e-01 0.0000000e+00 
-7.3949119e-02 5.0947602e-01 0.0000000e+00 
-5.6997108e-02 5.2040025e-01 0.0000000e+00 
-6.3068420e-02 5.1945568e-01 0.0000000e+00 
-6.9139586e-02 5.1851193e-01 0.0000000e+00 
-7.5211319e-02 5.1756868e-01 0.0000000e+00 
-5.8252722e-02 5.2849884e-01 0.0000000e+00 
-6.4326389e-02 5.2755375e-01 0.0000000e+00 
-7.0399859e-02 5.2660931e-01 0.0000000e+00 
-7.6473870e-02 5.2566534e-01 0.0000000e+00 
-5.9510052e-02 5.3659995e-01 0.0000000e+00 
-6.5585467e-02 5.3565439e-01 0.0000000e+00 
-7.1660688e-02 5.3470934e-01 0.0000000e+00 
-7.7736345e-02 5.3376454e-01 0.0000000e+00 
-6.0768686e-02 5.4470263e-01 0.0000000e+00 
-6.6845417e-02 5.4375686e-01 0.0000000e+00 
-7.2921906e-02 5.4281145e-01 0.0000000e+00 
-7.8998812e-02 5.4186627e-01 0.0000000e+00 
-6.2028522e-02 5.5280653e-01 0.0000000e+00 
-6.8106016e-02 5.5186057e-01 0.0000000e+00 
-7.4183282e-02 5.5091487e-01 0.0000000e+00 
-8.0260870e-02 5.4996919e-01 0.0000000e+00 
-6.3289173e-02 5.6091075e-01 0.0000000e+00 
-6.9367049e-02 5.5996487e-01 0.0000000e+00 
-7.5444678e-02 5.5901912e-01 0.0000000e+00 
-8.1522616e-02 5.5807334e-01 0.0000000e+00 
-6.4550486e-02 5.6901499e-01 0.0000000e+00 
-7.0628349e-02 5.6806921e-01 0.0000000e+00 
-7.6705946e-02 5.6712347e-01 0.0000000e+00 
-8.2783730e-02 5.6617763e-01 0.0000000e+00 
-6.5812252e-02 5.7711874e-01 0.0000000e+00 
-7.1889681e-02 5.7617313e-01 0.0000000e+00 
-7.7966854e-02 5.7522746e-01 0.0000000e+00 
-8.4044173e-02 5.7428154e-01 0.0000000e+00 
-6.7074168e-02 5.8522138e-01 0.0000000e+00 
-7.3150912e-02 5.8427615e-01 0.0000000e+00 
-7.9227375e-02 5.8333076e-01 0.0000000e+00 
-8.5303983e-02 5.8238513e-01 0.0000000e+00 
-6.8336212e-02 5.9332280e-01 0.0000000e+00 
-7.4411907e-02 5.9237792e-01 0.0000000e+00 
-8.0487343e-02 5.9143281e-01 0.0000000e+00 
-8.6562837e-02 5.9048730e-01 0.0000000e+00 
-6.9598077e-02 6.0142236e-01 0.0000000e+00 
-7.5672526e-02 6.0047802e-01 0.0000000e+00 
-8.1746684e-02 5.9953336e-01 0.0000000e+00 
-8.7820906e-02 5.9858834e-01 0.0000000e+00 
-7.0859761e-02 6.0952001e-01 0.0000000e+00 
-7.6932648e-02 6.0857617e-01 0.0000000e+00 
-8.3005274e-02 6.0763195e-01 0.0000000e+00 
-8.9077880e-02 6.0668723e-01 0.0000000e+00 
-7.2120978e-02 6.1761519e-01 0.0000000e+00 
-7.8192164e-02 6.1667202e-01 0.0000000e+00 
-8.4263062e-02 6.1572840e-01 0.0000000e+00 
-9.0333951e-02 6.1478431e-01 0.0000000e+00 
-7.3381753e-02 6.2570793e-01 0.0000000e+00 
-7.9450978e-02 6.2476536e-01 0.0000000e+00 
-8.5519948e-02 6.2382231e-01 0.0000000e+00 
-9.1588830e-02 6.2287867e-01 0.0000000e+00 
-7.4641823e-02 6.3379773e-01 0.0000000e+00 
-8.0709003e-02 6.3285592e-01 0.0000000e+00 
-8.6775902e-02 6.3191358e-01 0.0000000e+00 
-9.2842732e-02 6.3097069e-01 0.0000000e+00 
-7.5901240e-02 6.4188470e-01 0.0000000e+00 
-8.1966166e-02 6.4094357e-01 0.0000000e+00 
-8.8030850e-02 6.4000189e-01 0.0000000e+00 
-9.4095391e-02 6.3905955e-01 0.0000000e+00 
-7.7159763e-02 6.4996840e-01 0.0000000e+00 
-8.3222405e-02 6.4902811e-01 0.0000000e+00 
-8.9284782e-02 6.4808720e-01 0.0000000e+00 
-9.5347039e-02 6.4714570e-01 0.0000000e+00 
-7.8417470e-02 6.5804903e-01 0.0000000e+00 
-8.4477669e-02 6.5710945e-01 0.0000000e+00 
-9.0537646e-02 6.5616927e-01 0.0000000e+00 
-9.6597434e-02 6.5522840e-01 0.0000000e+00 
-7.9674142e-02 6.6612621e-01 0.0000000e+00 
-8.5731918e-02 6.6518749e-01 0.0000000e+00 
-9.1789451e-02 6.6424812e-01 0.0000000e+00 
-9.7846823e-02 6.6330814e-01 0.0000000e+00 
-8.0929884e-02 6.7420018e-01 0.0000000e+00 
-8.6985122e-02 6.7326220e-01 0.0000000e+00 
-9.3040165e-02 6.7232358e-01 0.0000000e+00 
-9.9094988e-02 6.7138427e-01 0.0000000e+00 
-8.2184504e-02 6.8227063e-01 0.0000000e+00 
-8.8237254e-02 6.8133350e-01 0.0000000e+00 
-9.4289816e-02 6.8039573e-01 0.0000000e+00 
-1.0034219e-01 6.7945732e-01 0.0000000e+00 
-8.3438054e-02 6.9033781e-01 0.0000000e+00 
-8.9488341e-02 6.8940146e-01 0.0000000e+00 
-9.5538438e-02 6.8846446e-01 0.0000000e+00 
-1.0158828e-01 6.8752686e-01 0.0000000e+00 
-8.4690529e-02 6.9840176e-01 0.0000000e+00 
-9.0738329e-02 6.9746612e-01 0.0000000e+00 