# vtk DataFile Version 4.0
vtk output
ASCII
DATASET UNSTRUCTURED_GRID
POINTS 604 float
5.5000000e+00 5.9700000e+00 0.0000000e+00 
5.5000000e+00 5.9900000e+00 0.0000000e+00 
5.5266667e+00 5.9700000e+00 0.0000000e+00 
5.5266667e+00 5.9900000e+00 0.0000000e+00 
5.5000000e+00 6.0100000e+00 0.0000000e+00 
5.5266667e+00 6.0100000e+00 0.0000000e+00 
5.5533333e+00 5.9700000e+00 0.0000000e+00 
5.5533333e+00 5.9900000e+00 0.0000000e+00 
5.5000000e+00 6.0300000e+00 0.0000000e+00 
5.5266667e+00 6.0300000e+00 0.0000000e+00 
5.5533333e+00 6.0100000e+00 0.0000000e+00 
5.5800000e+00 5.9700000e+00 0.0000000e+00 
5.5533333e+00 6.0300000e+00 0.0000000e+00 
5.5800000e+00 5.9900000e+00 0.0000000e+00 
5.5800000e+00 6.0100000e+00 0.0000000e+00 
5.5800000e+00 6.0300000e+00 0.0000000e+00 
5.6066667e+00 5.9700000e+00 0.0000000e+00 
5.6066667e+00 5.9900000e+00 0.0000000e+00 
5.6066667e+00 6.0100000e+00 0.0000000e+00 
5.6066667e+00 6.0300000e+00 0.0000000e+00 
5.6333333e+00 5.9700000e+00 0.0000000e+00 
5.6333333e+00 5.9900000e+00 0.0000000e+00 
5.6333333e+00 6.0100000e+00 0.0000000e+00 
5.6333333e+00 6.0300000e+00 0.0000000e+00 
5.6600000e+00 5.9700000e+00 0.0000000e+00 
5.6600000e+00 5.9900000e+00 0.0000000e+00 
5.6600000e+00 6.0100000e+00 0.0000000e+00 
5.6600000e+00 6.0300000e+00 0.0000000e+00 
5.6866667e+00 5.9700000e+00 0.0000000e+00 
5.6866667e+00 5.9900000e+00 0.0000000e+00 
5.6866667e+00 6.0100000e+00 0.0000000e+00 
5.6866667e+00 6.0300000e+00 0.0000000e+00 
5.7133333e+00 5.9700000e+00 0.0000000e+00 
5.7133333e+00 5.9900000e+00 0.0000000e+00 
5.7133333e+00 6.0100000e+00 0.0000000e+00 
5.7133333e+00 6.0300000e+00 0.0000000e+00 
5.7400000e+00 5.9700000e+00 0.0000000e+00 
5.7400000e+00 5.9900000e+00 0.0000000e+00 
5.7400000e+00 6.0100000e+00 0.0000000e+00 
5.7400000e+00 6.0300000e+00 0.0000000e+00 
5.7666667e+00 5.9700000e+00 0.0000000e+00 
5.7666667e+00 5.9900000e+00 0.0000000e+00 
5.7666667e+00 6.0100000e+00 0.0000000e+00 
5.7666667e+00 6.0300000e+00 0.0000000e+00 
5.7933333e+00 5.9700000e+00 0.0000000e+00 
5.7933333e+00 5.9900000e+00 0.0000000e+00 
5.7933333e+00 6.0100000e+00 0.0000000e+00 
5.7933333e+00 6.0300000e+00 0.0000000e+00 
5.8200000e+00 5.9700000e+00 0.0000000e+00 
5.8200000e+00 5.9900000e+00 0.0000000e+00 
5.8200000e+00 6.0100000e+00 0.0000000e+00 
5.8200000e+00 6.0300000e+00 0.0000000e+00 
5.8466667e+00 5.9700000e+00 0.0000000e+00 
5.8466667e+00 5.9900000e+00 0.0000000e+00 
5.8466667e+00 6.0100000e+00 0.0000000e+00 
5.8466667e+00 6.0300000e+00 0.0000000e+00 
5.8733333e+00 5.9700000e+00 0.0000000e+00 
5.8733333e+00 5.9900000e+00 0.0000000e+00 
5.8733333e+00 6.0100000e+00 0.0000000e+00 
5.8733333e+00 6.0300000e+00 0.0000000e+00 
5.9000000e+00 5.9700000e+00 0.0000000e+00 
5.9000000e+00 5.9900000e+00 0.0000000e+00 
5.9000000e+00 6.0100000e+00 0.0000000e+00 
5.9000000e+00 6.0300000e+00 0.0000000e+00 
5.9266667e+00 5.9700000e+00 0.0000000e+00 
5.9266667e+00 5.9900000e+00 0.0000000e+00 
5.9266667e+00 6.0100000e+00 0.0000000e+00 
5.9266667e+00 6.0300000e+00 0.0000000e+00 
5.9533333e+00 5.9700000e+00 0.0000000e+00 
5.9533333e+00 5.9900000e+00 0.0000000e+00 
5.9533333e+00 6.0100000e+00 0.0000000e+00 
5.9533333e+00 6.0300000e+00 0.0000000e+00 
5.9800000e+00 5.9700000e+00 0.0000000e+00 
5.9800000e+00 5.9900000e+00 0.0000000e+00 
5.9800000e+00 6.0100000e+00 0.0000000e+00 
5.9800000e+00 6.0300000e+00 0.0000000e+00 
6.0066667e+00 5.9700000e+00 0.0000000e+00 
6.0066667e+00 5.9900000e+00 0.0000000e+00 
6.0066667e+00 6.0100000e+00 0.0000000e+00 
6.0066667e+00 6.0300000e+00 0.0000000e+00 
6.0333333e+00 5.9700000e+00 0.0000000e+00 
6.0333333e+00 5.9900000e+00 0.0000000e+00 
6.0333333e+00 6.0100000e+00 0.0000000e+00 
6.0333333e+00 6.0300000e+00 0.0000000e+00 
6.0600000e+00 5.9700000e+00 0.0000000e+00 
6.0600000e+00 5.9900000e+00 0.0000000e+00 
6.0600000e+00 6.0100000e+00 0.0000000e+00 
6.0600000e+00 6.0300000e+00 0.0000000e+00 
6.0866667e+00 5.9700000e+00 0.0000000e+00 
6.0866667e+00 5.9900000e+00 0.0000000e+00 
6.0866667e+00 6.0100000e+00 0.0000000e+00 
6.0866667e+00 6.0300000e+00 0.0000000e+00 
6.1133333e+00 5.9700000e+00 0.0000000e+00 
6.1133333e+00 5.9900000e+00 0.0000000e+00 
6.1133333e+00 6.0100000e+00 0.0000000e+00 
6.1133333e+00 6.0300000e+00 0.0000000e+00 
6.1400000e+00 5.9700000e+00 0.0000000e+00 
6.1400000e+00 5.9900000e+00 0.0000000e+00 
6.1400000e+00 6.0100000e+00 0.0000000e+00 
6.1400000e+00 6.0300000e+00 0.0000000e+00 
6.1666667e+00 5.9700000e+00 0.0000000e+00 
6.1666667e+00 5.9900000e+00 0.0000000e+00 
6.1666667e+00 6.0100000e+00 0.0000000e+00 
6.1666667e+00 6.0300000e+00 0.0000000e+00 
6.1933333e+00 5.9700000e+00 0.0000000e+00 
6.1933333e+00 5.9900000e+00 0.0000000e+00 
6.1933333e+00 6.0100000e+00 0.0000000e+00 
6.1933333e+00 6.0300000e+00 0.0000000e+00 
6.2200000e+00 5.9700000e+00 0.0000000e+00 
6.2200000e+00 5.9900000e+00 0.0000000e+00 
6.2200000e+00 6.0100000e+00 0.0000000e+00 
6.2200000e+00 6.0300000e+00 0.0000000e+00 
6.2466667e+00 5.9700000e+00 0.0000000e+00 
6.2466667e+00 5.9900000e+00 0.0000000e+00 
6.2466667e+00 6.0100000e+00 0.0000000e+00 
6.2466667e+00 6.0300000e+00 0.0000000e+00 
6.2733333e+00 5.9700000e+00 0.0000000e+00 
6.2733333e+00 5.9900000e+00 0.0000000e+00 
6.2733333e+00 6.0100000e+00 0.0000000e+00 
6.2733333e+00 6.0300000e+00 0.0000000e+00 
6.3000000e+00 5.9700000e+00 0.0000000e+00 
6.3000000e+00 5.9900000e+00 0.0000000e+00 
6.3000000e+00 6.0100000e+00 0.0000000e+00 
6.3000000e+00 6.0300000e+00 0.0000000e+00 
6.3266667e+00 5.9700000e+00 0.0000000e+00 
6.3266667e+00 5.9900000e+00 0.0000000e+00 
6.3266667e+00 6.0100000e+00 0.0000000e+00 
6.3266667e+00 6.0300000e+00 0.0000000e+00 
6.3533333e+00 5.9700000e+00 0.0000000e+00 
6.3533333e+00 5.9900000e+00 0.0000000e+00 
6.3533333e+00 6.0100000e+00 0.0000000e+00 
6.3533333e+00 6.0300000e+00 0.0000000e+00 
6.3800000e+00 5.9700000e+00 0.0000000e+00 
6.3800000e+00 5.9900000e+00 0.0000000e+00 
6.3800000e+00 6.0100000e+00 0.0000000e+00 
6.3800000e+00 6.0300000e+00 0.0000000e+00 
6.4066667e+00 5.9700000e+00 0.0000000e+00 
6.4066667e+00 5.9900000e+00 0.0000000e+00 
6.4066667e+00 6.0100000e+00 0.0000000e+00 
6.4066667e+00 6.0300000e+00 0.0000000e+00 
6.4333333e+00 5.9700000e+00 0.0000000e+00 
6.4333333e+00 5.9900000e+00 0.0000000e+00 
6.4333333e+00 6.0100000e+00 0.0000000e+00 
6.4333333e+00 6.0300000e+00 0.0000000e+00 
6.4600000e+00 5.9700000e+00 0.0000000e+00 
6.4600000e+00 5.9900000e+00 0.0000000e+00 
6.4600000e+00 6.0100000e+00 0.0000000e+00 
6.4600000e+00 6.0300000e+00 0.0000000e+00 
6.4866667e+00 5.9700000e+00 0.0000000e+00 
6.4866667e+00 5.9900000e+00 0.0000000e+00 
6.4866667e+00 6.0100000e+00 0.0000000e+00 
6.4866667e+00 6.0300000e+00 0.0000000e+00 
6.5133333e+00 5.9700000e+00 0.0000000e+00 
6.5133333e+00 5.9900000e+00 0.0000000e+00 
6.5133333e+00 6.0100000e+00 0.0000000e+00 
6.5133333e+00 6.0300000e+00 0.0000000e+00 
6.5400000e+00 5.9700000e+00 0.0000000e+00 
6.5400000e+00 5.9900000e+00 0.0000000e+00 
6.5400000e+00 6.0100000e+00 0.0000000e+00 
6.5400000e+00 6.0300000e+00 0.0000000e+00 
6.5666667e+00 5.9700000e+00 0.0000000e+00 
6.5666667e+00 5.9900000e+00 0.0000000e+00 
6.5666667e+00 6.0100000e+00 0.0000000e+00 
6.5666667e+00 6.0300000e+00 0.0000000e+00 
6.5933333e+00 5.9700000e+00 0.0000000e+00 
6.5933333e+00 5.9900000e+00 0.0000000e+00 
6.5933333e+00 6.0100000e+00 0.0000000e+00 
6.5933333e+00 6.0300000e+00 0.0000000e+00 
6.6200000e+00 5.9700000e+00 0.0000000e+00 
6.6200000e+00 5.9900000e+00 0.0000000e+00 
6.6200000e+00 6.0100000e+00 0.0000000e+00 
6.6200000e+00 6.0300000e+00 0.0000000e+00 
6.6466667e+00 5.9700000e+00 0.0000000e+00 
6.6466667e+00 5.9900000e+00 0.0000000e+00 
6.6466667e+00 6.0100000e+00 0.0000000e+00 
6.6466667e+00 6.0300000e+00 0.0000000e+00 
6.6733333e+00 5.9700000e+00 0.0000000e+00 
6.6733333e+00 5.9900000e+00 0.0000000e+00 
6.6733333e+00 6.0100000e+00 0.0000000e+00 
6.6733333e+00 6.0300000e+00 0.0000000e+00 
6.7000000e+00 5.9700000e+00 0.0000000e+00 
6.7000000e+00 5.9900000e+00 0.0000000e+00 
6.7000000e+00 6.0100000e+00 0.0000000e+00 
6.7000000e+00 6.0300000e+00 0.0000000e+00 
6.7266667e+00 5.9700000e+00 0.0000000e+00 
6.7266667e+00 5.9900000e+00 0.0000000e+00 
6.7266667e+00 6.0100000e+00 0.0000000e+00 
6.7266667e+00 6.0300000e+00 0.0000000e+00 
6.7533333e+00 5.9700000e+00 0.0000000e+00 
6.7533333e+00 5.9900000e+00 0.0000000e+00 
6.7533333e+00 6.0100000e+00 0.0000000e+00 
6.7533333e+00 6.0300000e+00 0.0000000e+00 
6.7800000e+00 5.9700000e+00 0.0000000e+00 
6.7800000e+00 5.9900000e+00 0.0000000e+00 
6.7800000e+00 6.0100000e+00 0.0000000e+00 
6.7800000e+00 6.0300000e+00 0.0000000e+00 
6.8066667e+00 5.9700000e+00 0.0000000e+00 
6.8066667e+00 5.9900000e+00 0.0000000e+00 
6.8066667e+00 6.0100000e+00 0.0000000e+00 
6.8066667e+00 6.0300000e+00 0.0000000e+00 
6.8333333e+00 5.9700000e+00 0.0000000e+00 
6.8333333e+00 5.9900000e+00 0.0000000e+00 
6.8333333e+00 6.0100000e+00 0.0000000e+00 
6.8333333e+00 6.0300000e+00 0.0000000e+00 
6.8600000e+00 5.9700000e+00 0.0000000e+00 
6.8600000e+00 5.9900000e+00 0.0000000e+00 
6.8600000e+00 6.0100000e+00 0.0000000e+00 
6.8600000e+00 6.0300000e+00 0.0000000e+00 
6.8866667e+00 5.9700000e+00 0.0000000e+00 
6.8866667e+00 5.9900000e+00 0.0000000e+00 
6.8866667e+00 6.0100000e+00 0.0000000e+00 
6.8866667e+00 6.0300000e+00 0.0000000e+00 
6.9133333e+00 5.9700000e+00 0.0000000e+00 
6.9133333e+00 5.9900000e+00 0.0000000e+00 
6.9133333e+00 6.0100000e+00 0.0000000e+00 
6.9133333e+00 6.0300000e+00 0.0000000e+00 
6.9400000e+00 5.9700000e+00 0.0000000e+00 
6.9400000e+00 5.9900000e+00 0.0000000e+00 
6.9400000e+00 6.0100000e+00 0.0000000e+00 
6.9400000e+00 6.0300000e+00 0.0000000e+00 
6.9666667e+00 5.9700000e+00 0.0000000e+00 
6.9666667e+00 5.9900000e+00 0.0000000e+00 
6.9666667e+00 6.0100000e+00 0.0000000e+00 
6.9666667e+00 6.0300000e+00 0.0000000e+00 
6.9933333e+00 5.9700000e+00 0.0000000e+00 
6.9933333e+00 5.9900000e+00 0.0000000e+00 
6.9933333e+00 6.0100000e+00 0.0000000e+00 
6.9933333e+00 6.0300000e+00 0.0000000e+00 
7.0200000e+00 5.9700000e+00 0.0000000e+00 
7.0200000e+00 5.9900000e+00 0.0000000e+00 
[...]
POINT_DATA 604
FIELD FieldData 2
DISPLACEMENT 3 604  float
0.0000000e+00 0.0000000e+00 0.0000000e+00 
0.0000000e+00 0.0000000e+00 0.0000000e+00 
9.9180871e-05 5.9787367e-05 0.0000000e+00 
3.1414319e-05 3.8728786e-05 0.0000000e+00 
0.0000000e+00 0.0000000e+00 0.0000000e+00 
-3.1917913e-05 3.8578735e-05 0.0000000e+00 
2.0006263e-04 1.9286919e-04 0.0000000e+00 
6.6225356e-05 1.7506782e-04 0.0000000e+00 
0.0000000e+00 0.0000000e+00 0.0000000e+00 
-9.9772688e-05 5.9383819e-05 0.0000000e+00 
-6.7813861e-05 1.7455197e-04 0.0000000e+00 
2.9930019e-04 4.1849833e-04 0.0000000e+00 
-2.0187879e-04 1.9138756e-04 0.0000000e+00 
9.8325747e-05 3.9997067e-04 0.0000000e+00 
-1.0218814e-04 3.9890501e-04 0.0000000e+00 
-3.0352385e-04 4.1536030e-04 0.0000000e+00 
3.9631225e-04 7.3285742e-04 0.0000000e+00 
1.2935594e-04 7.1381137e-04 0.0000000e+00 
-1.3728270e-04 7.1197560e-04 0.0000000e+00 
-4.0470683e-04 7.2739610e-04 0.0000000e+00 
4.9089344e-04 1.1350470e-03 0.0000000e+00 
1.5876561e-04 1.1152520e-03 0.0000000e+00 
-1.7309133e-04 1.1124429e-03 0.0000000e+00 
-5.0579181e-04 1.1266651e-03 0.0000000e+00 
5.8277471e-04 1.6239426e-03 0.0000000e+00 
1.8632012e-04 1.6031882e-03 0.0000000e+00 
-2.0991460e-04 1.5992073e-03 0.0000000e+00 
-6.0703998e-04 1.6120372e-03 0.0000000e+00 
6.7170465e-04 2.1983729e-03 0.0000000e+00 
2.1176643e-04 2.1764782e-03 0.0000000e+00 
-2.4800910e-04 2.1711387e-03 0.0000000e+00 
-7.0871586e-04 2.1823888e-03 0.0000000e+00 
7.5744977e-04 2.8572125e-03 0.0000000e+00 
2.3485712e-04 2.8340015e-03 0.0000000e+00 
-2.8762163e-04 2.8271249e-03 0.0000000e+00 
-8.1107697e-04 2.8366120e-03 0.0000000e+00 
8.3978423e-04 3.5993727e-03 0.0000000e+00 
2.5536180e-04 3.5746584e-03 0.0000000e+00 
-3.2899204e-04 3.5660701e-03 0.0000000e+00 
-9.1436259e-04 3.5736318e-03 0.0000000e+00 
9.1848411e-04 4.4237036e-03 0.0000000e+00 
2.7305839e-04 4.3973335e-03 0.0000000e+00 
-3.7234566e-04 4.3868692e-03 0.0000000e+00 
-1.0188067e-03 4.3923307e-03 0.0000000e+00 
9.9334561e-04 5.3291303e-03 0.0000000e+00 
2.8773223e-04 5.3009333e-03 0.0000000e+00 
-4.1790081e-04 5.2884353e-03 0.0000000e+00 
-1.1246274e-03 5.2916522e-03 0.0000000e+00 
1.0641640e-03 6.3145196e-03 0.0000000e+00 
2.9918165e-04 6.2843553e-03 0.0000000e+00 
-4.6586364e-04 6.2696728e-03 0.0000000e+00 
-1.2320390e-03 6.2704822e-03 0.0000000e+00 
1.1307551e-03 7.3788015e-03 0.0000000e+00 
3.0721126e-04 7.3465158e-03 0.0000000e+00 
-5.1643323e-04 7.3295063e-03 0.0000000e+00 
-1.3412407e-03 7.3277808e-03 0.0000000e+00 
1.1929332e-03 8.5208607e-03 0.0000000e+00 
3.1163831e-04 8.4863244e-03 0.0000000e+00 
-5.6979682e-04 8.4668499e-03 0.0000000e+00 
-1.4524277e-03 8.4624381e-03 0.0000000e+00 
1.2505326e-03 9.7396323e-03 0.0000000e+00 
3.1228601e-04 9.7027075e-03 0.0000000e+00 
-6.2613507e-04 9.6806404e-03 0.0000000e+00 
-1.5657815e-03 9.6734311e-03 0.0000000e+00 
1.3033859e-03 1.1034019e-02 0.0000000e+00 
3.0898962e-04 1.0994587e-02 0.0000000e+00 
-6.8561722e-04 1.0969802e-02 0.0000000e+00 
-1.6814783e-03 1.0959654e-02 0.0000000e+00 
1.3513450e-03 1.2402961e-02 0.0000000e+00 
3.0159024e-04 1.2360900e-02 0.0000000e+00 
-7.4840623e-04 1.2333283e-02 0.0000000e+00 
-1.7996834e-03 1.2320102e-02 0.0000000e+00 
1.3942605e-03 1.3845378e-02 0.0000000e+00 
2.8994028e-04 1.3800581e-02 0.0000000e+00 
-8.1465416e-04 1.3770018e-02 0.0000000e+00 
-1.9205546e-03 1.3753673e-02 0.0000000e+00 
1.4320006e-03 1.5360219e-02 0.0000000e+00 
2.7389799e-04 1.5312577e-02 0.0000000e+00 
-8.8450699e-04 1.5278968e-02 0.0000000e+00 
-2.0442415e-03 1.5259378e-02 0.0000000e+00 
1.4644331e-03 1.6946419e-02 0.0000000e+00 
2.5333233e-04 1.6895835e-02 0.0000000e+00 
-9.5810037e-04 1.6859078e-02 0.0000000e+00 
-2.1708845e-03 1.6836124e-02 0.0000000e+00 
1.4914417e-03 1.8602934e-02 0.0000000e+00 
2.2811750e-04 1.8549314e-02 0.0000000e+00 
-1.0355636e-03 1.8509322e-02 0.0000000e+00 
-2.3006188e-03 1.8482935e-02 0.0000000e+00 
1.5129134e-03 2.0328715e-02 0.0000000e+00 
1.9813850e-04 2.0271971e-02 0.0000000e+00 
-1.1170219e-03 2.0228654e-02 0.0000000e+00 
-2.4335675e-03 2.0198739e-02 0.0000000e+00 
1.5287486e-03 2.2122728e-02 0.0000000e+00 
1.6328769e-04 2.2062776e-02 0.0000000e+00 
-1.2025822e-03 2.2016051e-02 0.0000000e+00 
-2.5698568e-03 2.1982519e-02 0.0000000e+00 
1.5388528e-03 2.3983953e-02 0.0000000e+00 
1.2346336e-04 2.3920717e-02 0.0000000e+00 
-1.2923572e-03 2.3870513e-02 0.0000000e+00 
-2.7095995e-03 2.3833311e-02 0.0000000e+00 
1.5431339e-03 2.5911369e-02 0.0000000e+00 
7.8570798e-05 2.5844778e-02 0.0000000e+00 
-1.3864447e-03 2.5791021e-02 0.0000000e+00 
-2.8528954e-03 2.5750056e-02 0.0000000e+00 
1.5415103e-03 2.7903967e-02 0.0000000e+00 
2.8522054e-05 2.7833955e-02 0.0000000e+00 
-1.4849377e-03 2.7776583e-02 0.0000000e+00 
-2.9998469e-03 2.7731816e-02 0.0000000e+00 
1.5339044e-03 2.9960738e-02 0.0000000e+00 
-2.6763236e-05 2.9887244e-02 0.0000000e+00 
-1.5879210e-03 2.9826193e-02 0.0000000e+00 
-3.1505388e-03 2.9777541e-02 0.0000000e+00 
1.5202482e-03 3.2080688e-02 0.0000000e+00 
-8.7359601e-05 3.2003653e-02 0.0000000e+00 
-1.6954741e-03 3.1938874e-02 0.0000000e+00 
-3.3050608e-03 3.1886306e-02 0.0000000e+00 
1.5004778e-03 3.4262816e-02 0.0000000e+00 
-1.5333426e-04 3.4182193e-02 0.0000000e+00 
-1.8076690e-03 3.4113630e-02 0.0000000e+00 
-3.4634836e-03 3.4057076e-02 0.0000000e+00 
1.4745374e-03 3.6506148e-02 0.0000000e+00 
-2.2474886e-04 3.6421886e-02 0.0000000e+00 
-1.9245721e-03 3.6349497e-02 0.0000000e+00 
-3.6258851e-03 3.6288934e-02 0.0000000e+00 
1.4423765e-03 3.8809691e-02 0.0000000e+00 
-3.0165810e-04 3.8721752e-02 0.0000000e+00 
-2.0462432e-03 3.8645494e-02 0.0000000e+00 
-3.7923231e-03 3.8580860e-02 0.0000000e+00 
1.4039509e-03 4.1172488e-02 0.0000000e+00 
-3.8411145e-04 4.1080829e-02 0.0000000e+00 
-2.1727364e-03 4.1000667e-02 0.0000000e+00 
-3.9628639e-03 4.0931949e-02 0.0000000e+00 
1.3592225e-03 4.3593556e-02 0.0000000e+00 
-4.7215175e-04 4.3498150e-02 0.0000000e+00 
-2.3040999e-03 4.3414050e-02 0.0000000e+00 
-4.1375530e-03 4.3341197e-02 0.0000000e+00 
1.3081585e-03 4.6071955e-02 0.0000000e+00 
-5.6581699e-04 4.5972765e-02 0.0000000e+00 
-2.4403762e-03 4.5884702e-02 0.0000000e+00 
-4.3164461e-03 4.5807705e-02 0.0000000e+00 
1.2507320e-03 4.8606713e-02 0.0000000e+00 
-6.6513864e-04 4.8503722e-02 0.0000000e+00 
-2.5816025e-03 4.8411669e-02 0.0000000e+00 
-4.4995770e-03 4.8330489e-02 0.0000000e+00 
1.1869211e-03 5.1196906e-02 0.0000000e+00 
-7.7014440e-04 5.1090085e-02 0.0000000e+00 
-2.7278099e-03 5.0994024e-02 0.0000000e+00 
-4.6869910e-03 5.0908658e-02 0.0000000e+00 
1.1167107e-03 5.3841578e-02 0.0000000e+00 
-8.8085245e-04 5.3730912e-02 0.0000000e+00 
-2.8790280e-03 5.3630825e-02 0.0000000e+00 
-4.8787132e-03 5.3541250e-02 0.0000000e+00 
1.0400957e-03 5.6539798e-02 0.0000000e+00 
-9.9728106e-04 5.6425277e-02 0.0000000e+00 
-3.0352750e-03 5.6321151e-02 0.0000000e+00 
-5.0747779e-03 5.6227352e-02 0.0000000e+00 
9.5706808e-04 5.9290674e-02 0.0000000e+00 
-1.1194410e-03 5.9172277e-02 0.0000000e+00 
-3.1965726e-03 5.9064104e-02 0.0000000e+00 
-5.2752141e-03 5.8966084e-02 0.0000000e+00 
8.6762667e-04 6.2093264e-02 0.0000000e+00 
-1.2473395e-03 6.1970997e-02 0.0000000e+00 
-3.3629329e-03 6.1858770e-02 0.0000000e+00 
-5.4800314e-03 6.1756514e-02 0.0000000e+00 
7.7177263e-04 6.4946701e-02 0.0000000e+00 
-1.3809804e-03 6.4820545e-02 0.0000000e+00 
-3.5343639e-03 6.4704262e-02 0.0000000e+00 
-5.6892518e-03 6.4597779e-02 0.0000000e+00 
6.6951363e-04 6.7850050e-02 0.0000000e+00 
-1.5203612e-03 6.7720020e-02 0.0000000e+00 
-3.7108698e-03 6.7599682e-02 0.0000000e+00 
-5.9028760e-03 6.7488964e-02 0.0000000e+00 
5.6085970e-04 7.0802462e-02 0.0000000e+00 
-1.6654774e-03 7.0668544e-02 0.0000000e+00 
-3.8924496e-03 7.0544155e-02 0.0000000e+00 
-6.1209173e-03 7.0429216e-02 0.0000000e+00 
4.4582690e-04 7.3803014e-02 0.0000000e+00 
-1.8163178e-03 7.3665230e-02 0.0000000e+00 
-4.0790995e-03 7.3536797e-02 0.0000000e+00 
-6.3433680e-03 7.3417639e-02 0.0000000e+00 
3.2443349e-04 7.6850875e-02 0.0000000e+00 
-1.9728700e-03 7.6709217e-02 0.0000000e+00 
-4.2708102e-03 7.6576748e-02 0.0000000e+00 
-6.5702336e-03 7.6453387e-02 0.0000000e+00 
1.9670329e-04 7.9945131e-02 0.0000000e+00 
-2.1351148e-03 7.9799628e-02 0.0000000e+00 
-4.4675701e-03 7.9663139e-02 0.0000000e+00 
-6.8014986e-03 7.9535584e-02 0.0000000e+00 
6.2662286e-05 8.3084972e-02 0.0000000e+00 
-2.3030325e-03 8.2935619e-02 0.0000000e+00 
-4.6693626e-03 8.2795121e-02 0.0000000e+00 
-7.0371607e-03 8.2663394e-02 0.0000000e+00 
-7.7658536e-05 8.6269493e-02 0.0000000e+00 
-2.4765962e-03 8.6116327e-02 0.0000000e+00 
-4.8761687e-03 8.5971842e-02 0.0000000e+00 
-7.2771978e-03 8.5835959e-02 0.0000000e+00 
-2.2422595e-04 8.9497904e-02 0.0000000e+00 
-2.6557797e-03 8.9340922e-02 0.0000000e+00 
-5.0879648e-03 8.9192467e-02 0.0000000e+00 
-7.5216001e-03 8.9052452e-02 0.0000000e+00 
-3.7700218e-04 9.2769310e-02 0.0000000e+00 
-2.8405490e-03 9.2608557e-02 0.0000000e+00 
-5.3047255e-03 9.2456159e-02 0.0000000e+00 
-7.7703389e-03 9.2312034e-02 0.0000000e+00 
-5.3594687e-04 9.6082938e-02 0.0000000e+00 
-3.0308723e-03 9.5918415e-02 0.0000000e+00 
-5.5264201e-03 9.5762094e-02 0.0000000e+00 
-8.0233973e-03 9.5613888e-02 0.0000000e+00 
-7.0101785e-04 9.9437920e-02 0.0000000e+00 
-3.2267039e-03 9.9269664e-02 0.0000000e+00 
-5.7530166e-03 9.9109450e-02 0.0000000e+00 
-8.2807439e-03 9.8957191e-02 0.0000000e+00 
-8.7216021e-04 1.0283344e-01 0.0000000e+00 
-3.4280102e-03 1.0266149e-01 0.0000000e+00 
-5.9844815e-03 1.0249742e-01 0.0000000e+00 
-8.5423541e-03 1.0234114e-01 0.0000000e+00 
-1.0493267e-03 1.0626875e-01 0.0000000e+00 
-3.6347453e-03 1.0609311e-01 0.0000000e+00 
-6.2207782e-03 1.0592520e-01 0.0000000e+00 
-8.8082030e-03 1.0576493e-01 0.0000000e+00 
-1.2324662e-03 1.0974299e-01 0.0000000e+00 
-3.8468613e-03 1.0956371e-01 0.0000000e+00 
-6.4618673e-03 1.0939201e-01 0.0000000e+00 
-9.0782496e-03 1.0922779e-01 0.0000000e+00 
-1.4215245e-03 1.1325543e-01 0.0000000e+00 
-4.0643132e-03 1.1307253e-01 0.0000000e+00 
-6.7077049e-03 1.1289706e-01 0.0000000e+00 
-9.3524629e-03 1.1272892e-01 0.0000000e+00 
-1.6164461e-03 1.1680524e-01 0.0000000e+00 
-4.2870473e-03 1.1661878e-01 0.0000000e+00 
-6.9582473e-03 1.1643959e-01 0.0000000e+00 
-9.6307971e-03 1.1626757e-01 0.0000000e+00 
-1.8171719e-03 1.2039171e-01 0.0000000e+00 
-4.5150140e-03 1.2020170e-01 0.0000000e+00 
-7.2134459e-03 1.2001881e-01 0.0000000e+00 
-9.9132165e-03 1.1984295e-01 0.0000000e+00 
-2.0236420e-03 1.2401400e-01 0.0000000e+00 
-4.7481547e-03 1.2382050e-01 0.0000000e+00 
-7.4732521e-03 1.2363397e-01 0.0000000e+00 
-1.0199671e-02 1.2345432e-01 0.0000000e+00 
-2.2357928e-03 1.2767144e-01 0.0000000e+00 
-4.9864155e-03 1.2747446e-01 0.0000000e+00 
-7.7376131e-03 1.2728432e-01 0.0000000e+00 
-1.0490120e-02 1.2710091e-01 0.0000000e+00 
-2.4535601e-03 1.3136319e-01 0.0000000e+00 
-5.2297336e-03 1.3116281e-01 0.0000000e+00 
-8.0064765e-03 1.3096911e-01 0.0000000e+00 
-1.0784511e-02 1.3078199e-01 0.0000000e+00 
-2.6768766e-03 1.3508859e-01 0.0000000e+00 
-5.4780515e-03 1.3488482e-01 0.0000000e+00 
-8.2797851e-03 1.3468759e-01 0.0000000e+00 
-1.1082798e-02 1.3449681e-01 0.0000000e+00 
-2.9056743e-03 1.3884683e-01 0.0000000e+00 
-5.7313023e-03 1.3863974e-01 0.0000000e+00 
-8.5574830e-03 1.3843905e-01 0.0000000e+00 
-1.1384924e-02 1.3824465e-01 0.0000000e+00 
-3.1398821e-03 1.4263726e-01 0.0000000e+00 
-5.9894253e-03 1.4242688e-01 0.0000000e+00 
-8.8395095e-03 1.4222275e-01 0.0000000e+00 
-1.1690841e-02 1.4202478e-01 0.0000000e+00 
-3.3794285e-03 1.4645909e-01 0.0000000e+00 
-6.2523500e-03 1.4624548e-01 0.0000000e+00 
-9.1258058e-03 1.4603798e-01 0.0000000e+00 
-1.2000488e-02 1.4583649e-01 0.0000000e+00 
-3.6242387e-03 1.5031167e-01 0.0000000e+00 
-6.5200137e-03 1.5009486e-01 0.0000000e+00 
-9.4163077e-03 1.4988402e-01 0.0000000e+00 
-1.2313814e-02 1.4967907e-01 0.0000000e+00 
-3.8742414e-03 1.5419425e-01 0.0000000e+00 
-6.7923365e-03 1.5397430e-01 0.0000000e+00 
-9.7109507e-03 1.5376018e-01 0.0000000e+00 
-1.2630759e-02 1.5355181e-01 0.0000000e+00 
-4.1293498e-03 1.5810614e-01 0.0000000e+00 
-7.0692577e-03 1.5788310e-01 0.0000000e+00 
-1.0009675e-02 1.5766576e-01 0.0000000e+00 
-1.2951266e-02 1.5745404e-01 0.0000000e+00 
-4.3894887e-03 1.6204670e-01 0.0000000e+00 
-7.3507034e-03 1.6182061e-01 0.0000000e+00 
-1.0312414e-02 1.6160009e-01 0.0000000e+00 
-1.3275284e-02 1.6138505e-01 0.0000000e+00 
-4.6545806e-03 1.6601519e-01 0.0000000e+00 
-7.6365974e-03 1.6578612e-01 0.0000000e+00 
-1.0619103e-02 1.6556248e-01 0.0000000e+00 
-1.3602747e-02 1.6534419e-01 0.0000000e+00 
-4.9245457e-03 1.7001103e-01 0.0000000e+00 
-7.9268715e-03 1.6977900e-01 0.0000000e+00 
-1.0929673e-02 1.6955229e-01 0.0000000e+00 
-1.3933599e-02 1.6933079e-01 0.0000000e+00 
-5.1993048e-03 1.7403347e-01 0.0000000e+00 
-8.2214471e-03 1.7379857e-01 0.0000000e+00 
-1.1244058e-02 1.7356884e-01 0.0000000e+00 
-1.4267771e-02 1.7334420e-01 0.0000000e+00 
-5.4787770e-03 1.7808195e-01 0.0000000e+00 
-8.5202540e-03 1.7784419e-01 0.0000000e+00 
-1.1562186e-02 1.7761149e-01 0.0000000e+00 
-1.4605205e-02 1.7738376e-01 0.0000000e+00 
-5.7628811e-03 1.8215573e-01 0.0000000e+00 
-8.8232118e-03 1.8191521e-01 0.0000000e+00 
-1.1883990e-02 1.8167961e-01 0.0000000e+00 
-1.4945833e-02 1.8144885e-01 0.0000000e+00 
-6.0515347e-03 1.8625428e-01 0.0000000e+00 
-9.1302492e-03 1.8601100e-01 0.0000000e+00 
-1.2209397e-02 1.8577254e-01 0.0000000e+00 
-1.5289596e-02 1.8553880e-01 0.0000000e+00 
-6.3446555e-03 1.9037686e-01 0.0000000e+00 
-9.4412842e-03 1.9013093e-01 0.0000000e+00 
-1.2538338e-02 1.8988968e-01 0.0000000e+00 
-1.5636421e-02 1.8965302e-01 0.0000000e+00 
-6.6421597e-03 1.9452296e-01 0.0000000e+00 
-9.7562444e-03 1.9427439e-01 0.0000000e+00 
-1.2870740e-02 1.9403039e-01 0.0000000e+00 
-1.5986250e-02 1.9379087e-01 0.0000000e+00 
-6.9439639e-03 1.9869188e-01 0.0000000e+00 
-1.0075047e-02 1.9844076e-01 0.0000000e+00 
-1.3206533e-02 1.9819408e-01 0.0000000e+00 
-1.6339011e-02 1.9795176e-01 0.0000000e+00 
-7.2499837e-03 2.0288309e-01 0.0000000e+00 
-1.0397618e-02 2.0262944e-01 0.0000000e+00 
-1.3545641e-02 2.0238013e-01 0.0000000e+00 
-1.6694642e-02 2.0213506e-01 0.0000000e+00 
-7.5601343e-03 2.0709592e-01 0.0000000e+00 
-1.0723875e-02 2.0683983e-01 0.0000000e+00 
-1.3887996e-02 2.0658795e-01 0.0000000e+00 
-1.7053070e-02 2.0634020e-01 0.0000000e+00 
-7.8743299e-03 2.1132987e-01 0.0000000e+00 
-1.1053744e-02 2.1107136e-01 0.0000000e+00 
-1.4233520e-02 2.1081696e-01 0.0000000e+00 
-1.7414234e-02 2.1056657e-01 0.0000000e+00 
-8.1924909e-03 2.1558428e-01 0.0000000e+00 
-1.1387134e-02 2.1532343e-01 0.0000000e+00 
-1.4582140e-02 2.1506657e-01 0.0000000e+00 
-1.7778064e-02 2.1481361e-01 0.0000000e+00 
-8.5145196e-03 2.1985858e-01 0.0000000e+00 
-1.1723978e-02 2.1959546e-01 0.0000000e+00 
-1.4933789e-02 2.1933621e-01 0.0000000e+00 
-1.8144495e-02 2.1908074e-01 0.0000000e+00 
-8.8403344e-03 2.2415230e-01 0.0000000e+00 
-1.2064195e-02 2.2388692e-01 0.0000000e+00 
-1.5288393e-02 2.2362532e-01 0.0000000e+00 
-1.8513470e-02 2.2336739e-01 0.0000000e+00 
-9.1698510e-03 2.2846478e-01 0.0000000e+00 
-1.2407701e-02 2.2819725e-01 0.0000000e+00 
-1.5645881e-02 2.2793336e-01 0.0000000e+00 
-1.8884917e-02 2.2767305e-01 0.0000000e+00 
-9.5029846e-03 2.3279560e-01 0.0000000e+00 
-1.2754424e-02 2.3252591e-01 0.0000000e+00 
-1.6006178e-02 2.3225978e-01 0.0000000e+00 
-1.9258775e-02 2.3199713e-01 0.0000000e+00 
-9.8396520e-03 2.3714409e-01 0.0000000e+00 
-1.3104280e-02 2.3687236e-01 0.0000000e+00 
-1.6369216e-02 2.3660406e-01 0.0000000e+00 
-1.9634971e-02 2.3633914e-01 0.0000000e+00 
-1.0179769e-02 2.4150986e-01 0.0000000e+00 
-1.3457198e-02 2.4123609e-01 0.0000000e+00 
-1.6734919e-02 2.4096566e-01 0.0000000e+00 
-2.0013446e-02 2.4069851e-01 0.0000000e+00 
-1.0523253e-02 2.4589227e-01 0.0000000e+00 
-1.3813094e-02 2.4561656e-01 0.0000000e+00 
-1.7103220e-02 2.4534408e-01 0.0000000e+00 
-2.0394129e-02 2.4507477e-01 0.0000000e+00 
-1.0870021e-02 2.5029093e-01 0.0000000e+00 
-1.4171897e-02 2.5001328e-01 0.0000000e+00 
-1.7474043e-02 2.4973878e-01 0.0000000e+00 
-2.0776957e-02 2.4946735e-01 0.0000000e+00 
-1.1219991e-02 2.5470521e-01 0.0000000e+00 
-1.4533523e-02 2.5442573e-01 0.0000000e+00 
-1.7847321e-02 2.5414929e-01 0.0000000e+00 
-2.1161864e-02 2.5387582e-01 0.0000000e+00 
-1.1573079e-02 2.5913475e-01 0.0000000e+00 
-1.4897904e-02 2.5885344e-01 0.0000000e+00 
-1.8222979e-02 2.5857509e-01 0.0000000e+00 
-2.1548786e-02 2.5829962e-01 0.0000000e+00 
-1.1929205e-02 2.6357892e-01 0.0000000e+00 
-1.5264956e-02 2.6329589e-01 0.0000000e+00 
-1.8600951e-02 2.6301571e-01 0.0000000e+00 
-2.1937656e-02 2.6273831e-01 0.0000000e+00 
-1.2288287e-02 2.6803739e-01 0.0000000e+00 
-1.5634611e-02 2.6775263e-01 0.0000000e+00 
-1.8981164e-02 2.6747066e-01 0.0000000e+00 
-2.2328414e-02 2.6719136e-01 0.0000000e+00 
-1.2650244e-02 2.7250955e-01 0.0000000e+00 
-1.6006787e-02 2.7222317e-01 0.0000000e+00 
-1.9363553e-02 2.7193947e-01 0.0000000e+00 
-2.2720991e-02 2.7165836e-01 0.0000000e+00 
-1.3014993e-02 2.7699506e-01 0.0000000e+00 
-1.6381417e-02 2.7670707e-01 0.0000000e+00 
-1.9748043e-02 2.7642167e-01 0.0000000e+00 
-2.3115327e-02 2.7613878e-01 0.0000000e+00 
-1.3382464e-02 2.8149336e-01 0.0000000e+00 
-1.6758412e-02 2.8120384e-01 0.0000000e+00 
-2.0134566e-02 2.8091681e-01 0.0000000e+00 
-2.3511361e-02 2.8063220e-01 0.0000000e+00 
-1.3752563e-02 2.8600403e-01 0.0000000e+00 
-1.7137714e-02 2.8571303e-01 0.0000000e+00 
-2.0523063e-02 2.8542444e-01 0.0000000e+00 
-2.3909030e-02 2.8513818e-01 0.0000000e+00 
-1.4125215e-02 2.9052670e-01 0.0000000e+00 
-1.7519248e-02 2.9023424e-01 0.0000000e+00 
-2.0913462e-02 2.8994412e-01 0.0000000e+00 
-2.4308282e-02 2.8965624e-01 0.0000000e+00 
-1.4500343e-02 2.9506084e-01 0.0000000e+00 
-1.7902935e-02 2.9476702e-01 0.0000000e+00 
-2.1305703e-02 2.9447542e-01 0.0000000e+00 
-2.4709054e-02 2.9418600e-01 0.0000000e+00 
-1.4877871e-02 2.9960615e-01 0.0000000e+00 
-1.8288712e-02 2.9931096e-01 0.0000000e+00 
-2.1699716e-02 2.9901793e-01 0.0000000e+00 
-2.5111291e-02 2.9872699e-01 0.0000000e+00 
-1.5257724e-02 3.0416209e-01 0.0000000e+00 
-1.8676504e-02 3.0386563e-01 0.0000000e+00 
-2.2095442e-02 3.0357123e-01 0.0000000e+00 
-2.5514930e-02 3.0327886e-01 0.0000000e+00 
-1.5639826e-02 3.0872838e-01 0.0000000e+00 
-1.9066248e-02 3.0843064e-01 0.0000000e+00 
-2.2492814e-02 3.0813492e-01 0.0000000e+00 
-2.5919918e-02 3.0784112e-01 0.0000000e+00 
-1.6024106e-02 3.1330450e-01 0.0000000e+00 
-1.9457870e-02 3.1300559e-01 0.0000000e+00 
-2.2891774e-02 3.1270860e-01 0.0000000e+00 
-2.6326195e-02 3.1241346e-01 0.0000000e+00 
-1.6410490e-02 3.1789018e-01 0.0000000e+00 
-1.9851310e-02 3.1759010e-01 0.0000000e+00 
-2.3292256e-02 3.1729187e-01 0.0000000e+00 
-2.6733708e-02 3.1699542e-01 0.0000000e+00 
-1.6798907e-02 3.2248493e-01 0.0000000e+00 
-2.0246494e-02 3.2218376e-01 0.0000000e+00 
-2.3694204e-02 3.2188436e-01 0.0000000e+00 
-2.7142399e-02 3.2158666e-01 0.0000000e+00 
-1.7189284e-02 3.2708848e-01 0.0000000e+00 
-2.0643365e-02 3.2678623e-01 0.0000000e+00 
-2.4097554e-02 3.2648568e-01 0.0000000e+00 
-2.7552218e-02 3.2618677e-01 0.0000000e+00 
-1.7581554e-02 3.3170036e-01 0.0000000e+00 
-2.1041850e-02 3.3139711e-01 0.0000000e+00 
-2.4502252e-02 3.3109548e-01 0.0000000e+00 
-2.7963108e-02 3.3079542e-01 0.0000000e+00 
-1.7975645e-02 3.3632031e-01 0.0000000e+00 
-2.1441894e-02 3.3601607e-01 0.0000000e+00 
-2.4908235e-02 3.3571339e-01 0.0000000e+00 
-2.8375021e-02 3.3541220e-01 0.0000000e+00 
-1.8371491e-02 3.4094788e-01 0.0000000e+00 
-2.1843427e-02 3.4064273e-01 0.0000000e+00 
-2.5315453e-02 3.4033905e-01 0.0000000e+00 
-2.8787901e-02 3.4003681e-01 0.0000000e+00 
-1.8769022e-02 3.4558284e-01 0.0000000e+00 
-2.2246397e-02 3.4527677e-01 0.0000000e+00 
-2.5723844e-02 3.4497213e-01 0.0000000e+00 
-2.9201701e-02 3.4466885e-01 0.0000000e+00 
-1.9168180e-02 3.5022475e-01 0.0000000e+00 
-2.2650727e-02 3.4991784e-01 0.0000000e+00 
-2.6133351e-02 3.4961228e-01 0.0000000e+00 
-2.9616373e-02 3.4930802e-01 0.0000000e+00 
-1.9568887e-02 3.5487329e-01 0.0000000e+00 
-2.3056373e-02 3.5456559e-01 0.0000000e+00 