# vtk DataFile Version 4.0
vtk output
ASCII
DATASET UNSTRUCTURED_GRID
POINTS 604 float
5.5000000e+00 5.9700000e+00 0.0000000e+00 
5.5000000e+00 5.9900000e+00 0.0000000e+00 
5.5266667e+00 5.9700000e+00 0.0000000e+00 
5.5266667e+00 5.9900000e+00 0.0000000e+00 
5.5000000e+00 6.0100000e+00 0.0000000e+00 
5.5266667e+00 6.0100000e+00 0.0000000e+00 
5.5533333e+00 5.9700000e+00 0.0000000e+00 
5.5533333e+00 5.9900000e+00 0.0000000e+00 
5.5000000e+00 6.0300000e+00 0.0000000e+00 
5.5266667e+00 6.0300000e+00 0.0000000e+00 
5.5533333e+00 6.0100000e+00 0.0000000e+00 
5.5800000e+00 5.9700000e+00 0.0000000e+00 
5.5533333e+00 6.0300000e+00 0.0000000e+00 
5.5800000e+00 5.9900000e+00 0.0000000e+00 
5.5800000e+00 6.0100000e+00 0.0000000e+00 
5.5800000e+00 6.0300000e+00 0.0000000e+00 
5.6066667e+00 5.9700000e+00 0.0000000e+00 
5.6066667e+00 5.9900000e+00 0.0000000e+00 
5.6066667e+00 6.0100000e+00 0.0000000e+00 
5.6066667e+00 6.0300000e+00 0.0000000e+00 
5.6333333e+00 5.9700000e+00 0.0000000e+00 
5.6333333e+00 5.9900000e+00 0.0000000e+00 
5.6333333e+00 6.0100000e+00 0.0000000e+00 
5.6333333e+00 6.0300000e+00 0.0000000e+00 
5.6600000e+00 5.9700000e+00 0.0000000e+00 
5.6600000e+00 5.9900000e+00 0.0000000e+00 
5.6600000e+00 6.0100000e+00 0.0000000e+00 
5.6600000e+00 6.0300000e+00 0.0000000e+00 
5.6866667e+00 5.9700000e+00 0.0000000e+00 
5.6866667e+00 5.9900000e+00 0.0000000e+00 
5.6866667e+00 6.0100000e+00 0.0000000e+00 
5.6866667e+00 6.0300000e+00 0.0000000e+00 
5.7133333e+00 5.9700000e+00 0.0000000e+00 
5.7133333e+00 5.9900000e+00 0.0000000e+00 
5.7133333e+00 6.0100000e+00 0.0000000e+00 
5.7133333e+00 6.0300000e+00 0.0000000e+00 
5.7400000e+00 5.9700000e+00 0.0000000e+00 
5.7400000e+00 5.9900000e+00 0.0000000e+00 
5.7400000e+00 6.0100000e+00 0.0000000e+00 
5.7400000e+00 6.0300000e+00 0.0000000e+00 
5.7666667e+00 5.9700000e+00 0.0000000e+00 
5.7666667e+00 5.9900000e+00 0.0000000e+00 
5.7666667e+00 6.0100000e+00 0.0000000e+00 
5.7666667e+00 6.0300000e+00 0.0000000e+00 
5.7933333e+00 5.9700000e+00 0.0000000e+00 
5.7933333e+00 5.9900000e+00 0.0000000e+00 
5.7933333e+00 6.0100000e+00 0.0000000e+00 
5.7933333e+00 6.0300000e+00 0.0000000e+00 
5.8200000e+00 5.9700000e+00 0.0000000e+00 
5.8200000e+00 5.9900000e+00 0.0000000e+00 
5.8200000e+00 6.0100000e+00 0.0000000e+00 
5.8200000e+00 6.0300000e+00 0.0000000e+00 
5.8466667e+00 5.9700000e+00 0.0000000e+00 
5.8466667e+00 5.9900000e+00 0.0000000e+00 
5.8466667e+00 6.0100000e+00 0.0000000e+00 
5.8466667e+00 6.0300000e+00 0.0000000e+00 
5.8733333e+00 5.9700000e+00 0.0000000e+00 
5.8733333e+00 5.9900000e+00 0.0000000e+00 
5.8733333e+00 6.0100000e+00 0.0000000e+00 
5.8733333e+00 6.0300000e+00 0.0000000e+00 
5.9000000e+00 5.9700000e+00 0.0000000e+00 
5.9000000e+00 5.9900000e+00 0.0000000e+00 
5.9000000e+00 6.0100000e+00 0.0000000e+00 
5.9000000e+00 6.0300000e+00 0.0000000e+00 
5.9266667e+00 5.9700000e+00 0.0000000e+00 
5.9266667e+00 5.9900000e+00 0.0000000e+00 
5.9266667e+00 6.0100000e+00 0.0000000e+00 
5.9266667e+00 6.0300000e+00 0.0000000e+00 
5.9533333e+00 5.9700000e+00 0.0000000e+00 
5.9533333e+00 5.9900000e+00 0.0000000e+00 
5.9533333e+00 6.0100000e+00 0.0000000e+00 
5.9533333e+00 6.0300000e+00 0.0000000e+00 
5.9800000e+00 5.9700000e+00 0.0000000e+00 
5.9800000e+00 5.9900000e+00 0.0000000e+00 
5.9800000e+00 6.0100000e+00 0.0000000e+00 
5.9800000e+00 6.0300000e+00 0.0000000e+00 
6.0066667e+00 5.9700000e+00 0.0000000e+00 
6.0066667e+00 5.9900000e+00 0.0000000e+00 
6.0066667e+00 6.0100000e+00 0.0000000e+00 
6.0066667e+00 6.0300000e+00 0.0000000e+00 
6.0333333e+00 5.9700000e+00 0.0000000e+00 
6.0333333e+00 5.9900000e+00 0.0000000e+00 
6.0333333e+00 6.0100000e+00 0.0000000e+00 
6.0333333e+00 6.0300000e+00 0.0000000e+00 
6.0600000e+00 5.9700000e+00 0.0000000e+00 
6.0600000e+00 5.9900000e+00 0.0000000e+00 
6.0600000e+00 6.0100000e+00 0.0000000e+00 
6.0600000e+00 6.0300000e+00 0.0000000e+00 
6.0866667e+00 5.9700000e+00 0.0000000e+00 
6.0866667e+00 5.9900000e+00 0.0000000e+00 
6.0866667e+00 6.0100000e+00 0.0000000e+00 
6.0866667e+00 6.0300000e+00 0.0000000e+00 
6.1133333e+00 5.9700000e+00 0.0000000e+00 
6.1133333e+00 5.9900000e+00 0.0000000e+00 
6.1133333e+00 6.0100000e+00 0.0000000e+00 
6.1133333e+00 6.0300000e+00 0.0000000e+00 
6.1400000e+00 5.9700000e+00 0.0000000e+00 
6.1400000e+00 5.9900000e+00 0.0000000e+00 
6.1400000e+00 6.0100000e+00 0.0000000e+00 
6.1400000e+00 6.0300000e+00 0.0000000e+00 
6.1666667e+00 5.9700000e+00 0.0000000e+00 
6.1666667e+00 5.9900000e+00 0.0000000e+00 
6.1666667e+00 6.0100000e+00 0.0000000e+00 
6.1666667e+00 6.0300000e+00 0.0000000e+00 
6.1933333e+00 5.9700000e+00 0.0000000e+00 
6.1933333e+00 5.9900000e+00 0.0000000e+00 
6.1933333e+00 6.0100000e+00 0.0000000e+00 
6.1933333e+00 6.0300000e+00 0.0000000e+00 
6.2200000e+00 5.9700000e+00 0.0000000e+00 
6.2200000e+00 5.9900000e+00 0.0000000e+00 
6.2200000e+00 6.0100000e+00 0.0000000e+00 
6.2200000e+00 6.0300000e+00 0.0000000e+00 
6.2466667e+00 5.9700000e+00 0.0000000e+00 
6.2466667e+00 5.9900000e+00 0.0000000e+00 
6.2466667e+00 6.0100000e+00 0.0000000e+00 
6.2466667e+00 6.0300000e+00 0.0000000e+00 
6.2733333e+00 5.9700000e+00 0.0000000e+00 
6.2733333e+00 5.9900000e+00 0.0000000e+00 
6.2733333e+00 6.0100000e+00 0.0000000e+00 
6.2733333e+00 6.0300000e+00 0.0000000e+00 
6.3000000e+00 5.9700000e+00 0.0000000e+00 
6.3000000e+00 5.9900000e+00 0.0000000e+00 
6.3000000e+00 6.0100000e+00 0.0000000e+00 
6.3000000e+00 6.0300000e+00 0.0000000e+00 
6.3266667e+00 5.9700000e+00 0.0000000e+00 
6.3266667e+00 5.9900000e+00 0.0000000e+00 
6.3266667e+00 6.0100000e+00 0.0000000e+00 
6.3266667e+00 6.0300000e+00 0.0000000e+00 
6.3533333e+00 5.9700000e+00 0.0000000e+00 
6.3533333e+00 5.9900000e+00 0.0000000e+00 
6.3533333e+00 6.0100000e+00 0.0000000e+00 
6.3533333e+00 6.0300000e+00 0.0000000e+00 
6.3800000e+00 5.9700000e+00 0.0000000e+00 
6.3800000e+00 5.9900000e+00 0.0000000e+00 
6.3800000e+00 6.0100000e+00 0.0000000e+00 
6.3800000e+00 6.0300000e+00 0.0000000e+00 
6.4066667e+00 5.9700000e+00 0.0000000e+00 
6.4066667e+00 5.9900000e+00 0.0000000e+00 
6.4066667e+00 6.0100000e+00 0.0000000e+00 
6.4066667e+00 6.0300000e+00 0.0000000e+00 
6.4333333e+00 5.9700000e+00 0.0000000e+00 
6.4333333e+00 5.9900000e+00 0.0000000e+00 
6.4333333e+00 6.0100000e+00 0.0000000e+00 
6.4333333e+00 6.0300000e+00 0.0000000e+00 
6.4600000e+00 5.9700000e+00 0.0000000e+00 
6.4600000e+00 5.9900000e+00 0.0000000e+00 
6.4600000e+00 6.0100000e+00 0.0000000e+00 
6.4600000e+00 6.0300000e+00 0.0000000e+00 
6.4866667e+00 5.9700000e+00 0.0000000e+00 
6.4866667e+00 5.9900000e+00 0.0000000e+00 
6.4866667e+00 6.0100000e+00 0.0000000e+00 
6.4866667e+00 6.0300000e+00 0.0000000e+00 
6.5133333e+00 5.9700000e+00 0.0000000e+00 
6.5133333e+00 5.9900000e+00 0.0000000e+00 
6.5133333e+00 6.0100000e+00 0.0000000e+00 
6.5133333e+00 6.0300000e+00 0.0000000e+00 
6.5400000e+00 5.9700000e+00 0.0000000e+00 
6.5400000e+00 5.9900000e+00 0.0000000e+00 
6.5400000e+00 6.0100000e+00 0.0000000e+00 
6.5400000e+00 6.0300000e+00 0.0000000e+00 
6.5666667e+00 5.9700000e+00 0.0000000e+00 
6.5666667e+00 5.9900000e+00 0.0000000e+00 
6.5666667e+00 6.0100000e+00 0.0000000e+00 
6.5666667e+00 6.0300000e+00 0.0000000e+00 
6.5933333e+00 5.9700000e+00 0.0000000e+00 
6.5933333e+00 5.9900000e+00 0.0000000e+00 
6.5933333e+00 6.0100000e+00 0.0000000e+00 
6.5933333e+00 6.0300000e+00 0.0000000e+00 
6.6200000e+00 5.9700000e+00 0.0000000e+00 
6.6200000e+00 5.9900000e+00 0.0000000e+00 
6.6200000e+00 6.0100000e+00 0.0000000e+00 
6.6200000e+00 6.0300000e+00 0.0000000e+00 
6.6466667e+00 5.9700000e+00 0.0000000e+00 
6.6466667e+00 5.9900000e+00 0.0000000e+00 
6.6466667e+00 6.0100000e+00 0.0000000e+00 
6.6466667e+00 6.0300000e+00 0.0000000e+00 
6.6733333e+00 5.9700000e+00 0.0000000e+00 
6.6733333e+00 5.9900000e+00 0.0000000e+00 
6.6733333e+00 6.0100000e+00 0.0000000e+00 
6.6733333e+00 6.0300000e+00 0.0000000e+00 
6.7000000e+00 5.9700000e+00 0.0000000e+00 
6.7000000e+00 5.9900000e+00 0.0000000e+00 
6.7000000e+00 6.0100000e+00 0.0000000e+00 
6.7000000e+00 6.0300000e+00 0.0000000e+00 
6.7266667e+00 5.9700000e+00 0.0000000e+00 
6.7266667e+00 5.9900000e+00 0.0000000e+00 
6.7266667e+00 6.0100000e+00 0.0000000e+00 
6.7266667e+00 6.0300000e+00 0.0000000e+00 
6.7533333e+00 5.9700000e+00 0.0000000e+00 
6.7533333e+00 5.9900000e+00 0.0000000e+00 
6.7533333e+00 6.0100000e+00 0.0000000e+00 
6.7533333e+00 6.0300000e+00 0.0000000e+00 
6.7800000e+00 5.9700000e+00 0.0000000e+00 
6.7800000e+00 5.9900000e+00 0.0000000e+00 
6.7800000e+00 6.0100000e+00 0.0000000e+00 
6.7800000e+00 6.0300000e+00 0.0000000e+00 
6.8066667e+00 5.9700000e+00 0.0000000e+00 
6.8066667e+00 5.9900000e+00 0.0000000e+00 
6.8066667e+00 6.0100000e+00 0.0000000e+00 
6.8066667e+00 6.0300000e+00 0.0000000e+00 
6.8333333e+00 5.9700000e+00 0.0000000e+00 
6.8333333e+00 5.9900000e+00 0.0000000e+00 
6.8333333e+00 6.0100000e+00 0.0000000e+00 
6.8333333e+00 6.0300000e+00 0.0000000e+00 
6.8600000e+00 5.9700000e+00 0.0000000e+00 
6.8600000e+00 5.9900000e+00 0.0000000e+00 
6.8600000e+00 6.0100000e+00 0.0000000e+00 
6.8600000e+00 6.0300000e+00 0.0000000e+00 
6.8866667e+00 5.9700000e+00 0.0000000e+00 
6.8866667e+00 5.9900000e+00 0.0000000e+00 
6.8866667e+00 6.0100000e+00 0.0000000e+00 
6.8866667e+00 6.0300000e+00 0.0000000e+00 
6.9133333e+00 5.9700000e+00 0.0000000e+00 
6.9133333e+00 5.9900000e+00 0.0000000e+00 
6.9133333e+00 6.0100000e+00 0.0000000e+00 
6.9133333e+00 6.0300000e+00 0.0000000e+00 
6.9400000e+00 5.9700000e+00 0.0000000e+00 
6.9400000e+00 5.9900000e+00 0.0000000e+00 
6.9400000e+00 6.0100000e+00 0.0000000e+00 
6.9400000e+00 6.0300000e+00 0.0000000e+00 
6.9666667e+00 5.9700000e+00 0.0000000e+00 
6.9666667e+00 5.9900000e+00 0.0000000e+00 
6.9666667e+00 6.0100000e+00 0.0000000e+00 
6.9666667e+00 6.0300000e+00 0.0000000e+00 
6.9933333e+00 5.9700000e+00 0.0000000e+00 
6.9933333e+00 5.9900000e+00 0.0000000e+00 
6.9933333e+00 6.0100000e+00 0.0000000e+00 
6.9933333e+00 6.0300000e+00 0.0000000e+00 
7.0200000e+00 5.9700000e+00 0.0000000e+00 
7.0200000e+00 5.9900000e+00 0.0000000e+00 
[...]
POINT_DATA 604
FIELD FieldData 2
DISPLACEMENT 3 604  float
0.0000000e+00 0.0000000e+00 0.0000000e+00 
0.0000000e+00 0.0000000e+00 0.0000000e+00 
2.1041580e-04 1.2832202e-04 0.0000000e+00 
6.6648930e-05 8.3126795e-05 0.0000000e+00 
0.0000000e+00 0.0000000e+00 0.0000000e+00 
-6.7698009e-05 8.2386909e-05 0.0000000e+00 
4.2313589e-04 4.1143588e-04 0.0000000e+00 
1.3947692e-04 3.7330129e-04 0.0000000e+00 
0.0000000e+00 0.0000000e+00 0.0000000e+00 
-2.1217501e-04 1.2599191e-04 0.0000000e+00 
-1.4465541e-04 3.7140434e-04 0.0000000e+00 
6.3030106e-04 8.9323496e-04 0.0000000e+00 
-4.2938971e-04 4.0652860e-04 0.0000000e+00 
2.0497310e-04 8.5141950e-04 0.0000000e+00 
-2.1954974e-04 8.4666654e-04 0.0000000e+00 
-6.4648180e-04 8.7863119e-04 0.0000000e+00 
8.3011811e-04 1.5606914e-03 0.0000000e+00 
2.6592664e-04 1.5170034e-03 0.0000000e+00 
-2.9787582e-04 1.5091697e-03 0.0000000e+00 
-8.6412574e-04 1.5379723e-03 0.0000000e+00 
1.0213917e-03 2.4157663e-03 0.0000000e+00 
3.2053729e-04 2.3674058e-03 0.0000000e+00 
-3.8020648e-04 2.3548449e-03 0.0000000e+00 
-1.0836883e-03 2.3778053e-03 0.0000000e+00 
1.2030610e-03 3.4510383e-03 0.0000000e+00 
3.6775199e-04 3.3989149e-03 0.0000000e+00 
-4.6780923e-04 3.3817382e-03 0.0000000e+00 
-1.3064347e-03 3.3998121e-03 0.0000000e+00 
1.3741692e-03 4.6668742e-03 0.0000000e+00 
4.0607122e-04 4.6093137e-03 0.0000000e+00 
-5.6213686e-04 4.5861559e-03 0.0000000e+00 
-1.5332208e-03 4.5977023e-03 0.0000000e+00 
1.5333481e-03 6.0603704e-03 0.0000000e+00 
4.3513571e-04 5.9957646e-03 0.0000000e+00 
-6.6353771e-04 5.9653161e-03 0.0000000e+00 
-1.7654464e-03 5.9686546e-03 0.0000000e+00 
1.6800210e-03 7.6252606e-03 0.0000000e+00 
4.5361982e-04 7.5546656e-03 0.0000000e+00 
-7.7344845e-04 7.5171603e-03 0.0000000e+00 
-2.0039600e-03 7.5134163e-03 0.0000000e+00 
1.8129466e-03 9.3631206e-03 0.0000000e+00 
4.6055336e-04 9.2839780e-03 0.0000000e+00 
-8.9272365e-04 9.2379719e-03 0.0000000e+00 
-2.2496139e-03 9.2245330e-03 0.0000000e+00 
1.9315321e-03 1.1266580e-02 0.0000000e+00 
4.5511368e-04 1.1180148e-02 0.0000000e+00 
-1.0223127e-03 1.1125705e-02 0.0000000e+00 
-2.5034950e-03 1.1103897e-02 0.0000000e+00 
2.0346114e-03 1.3337283e-02 0.0000000e+00 
4.3642740e-04 1.3241023e-02 0.0000000e+00 
-1.1629722e-03 1.3176821e-02 0.0000000e+00 
-2.7662847e-03 1.3144050e-02 0.0000000e+00 
2.1217893e-03 1.5567801e-02 0.0000000e+00 
4.0376134e-04 1.5463087e-02 0.0000000e+00 
-1.3155823e-03 1.5389275e-02 0.0000000e+00 
-3.0389643e-03 1.5346976e-02 0.0000000e+00 
2.1919369e-03 1.7959891e-02 0.0000000e+00 
3.5632912e-04 1.7844226e-02 0.0000000e+00 
-1.4807868e-03 1.7759547e-02 0.0000000e+00 
-3.3220816e-03 1.7705175e-02 0.0000000e+00 
2.2448085e-03 2.0506071e-02 0.0000000e+00 
2.9350587e-04 2.0380933e-02 0.0000000e+00 
-1.6593813e-03 2.0285618e-02 0.0000000e+00 
-3.6165547e-03 2.0220701e-02 0.0000000e+00 
2.2793152e-03 2.3208199e-02 0.0000000e+00 
2.1458806e-04 2.3071129e-02 0.0000000e+00 
-1.8519001e-03 2.2963981e-02 0.0000000e+00 
-3.9227988e-03 2.2886022e-02 0.0000000e+00 
2.2953532e-03 2.6058734e-02 0.0000000e+00 
1.1905542e-04 2.5911312e-02 0.0000000e+00 
-2.0590582e-03 2.5792640e-02 0.0000000e+00 
-4.2416729e-03 2.5703258e-02 0.0000000e+00 
2.2918755e-03 2.9059627e-02 0.0000000e+00 
6.2814406e-06 2.8899432e-02 0.0000000e+00 
-2.2812855e-03 2.8768097e-02 0.0000000e+00 
-4.5734599e-03 2.8664843e-02 0.0000000e+00 
2.2689123e-03 3.2203295e-02 0.0000000e+00 
-1.2415067e-04 3.2031990e-02 0.0000000e+00 
-2.5192176e-03 3.1888374e-02 0.0000000e+00 
-4.9189605e-03 3.1772941e-02 0.0000000e+00 
2.2254191e-03 3.5491747e-02 0.0000000e+00 
-2.7277522e-04 3.5306993e-02 0.0000000e+00 
-2.7731567e-03 3.5149955e-02 0.0000000e+00 
-5.2783740e-03 3.5019968e-02 0.0000000e+00 
2.1615151e-03 3.8917312e-02 0.0000000e+00 
-4.3987055e-04 3.8720762e-02 0.0000000e+00 
-3.0436840e-03 3.8551048e-02 0.0000000e+00 
-5.6524864e-03 3.8408160e-02 0.0000000e+00 
2.0767134e-03 4.2480966e-02 0.0000000e+00 
-6.2632852e-04 4.2271330e-02 0.0000000e+00 
-3.3314628e-03 4.2088051e-02 0.0000000e+00 
-6.0412594e-03 4.1931136e-02 0.0000000e+00 
1.9702989e-03 4.6180004e-02 0.0000000e+00 
-8.3174558e-04 4.5956152e-02 0.0000000e+00 
-3.6360875e-03 4.5758479e-02 0.0000000e+00 
-6.4453777e-03 4.5586238e-02 0.0000000e+00 
1.8426126e-03 5.0007896e-02 0.0000000e+00 
-1.0567184e-03 4.9771613e-02 0.0000000e+00 
-3.9583994e-03 4.9560377e-02 0.0000000e+00 
-6.8651065e-03 4.9374601e-02 0.0000000e+00 
1.6927139e-03 5.3966872e-02 0.0000000e+00 
-1.3016460e-03 5.3715882e-02 0.0000000e+00 
-4.2984467e-03 5.3490081e-02 0.0000000e+00 
-7.3003253e-03 5.3288525e-02 0.0000000e+00 
1.5210092e-03 5.8049114e-02 0.0000000e+00 
-1.5665862e-03 5.7785398e-02 0.0000000e+00 
-4.6565939e-03 5.7545654e-02 0.0000000e+00 
-7.7517035e-03 5.7330275e-02 0.0000000e+00 
1.3266387e-03 6.2256864e-02 0.0000000e+00 
-1.8518542e-03 6.1978164e-02 0.0000000e+00 
-5.0328387e-03 6.1723590e-02 0.0000000e+00 
-8.2189669e-03 6.1492152e-02 0.0000000e+00 
1.1101598e-03 6.6582243e-02 0.0000000e+00 
-2.1574418e-03 6.6290626e-02 0.0000000e+00 
-5.4274930e-03 6.6021906e-02 0.0000000e+00 
-8.7026998e-03 6.5776444e-02 0.0000000e+00 
8.7075264e-04 7.1027530e-02 0.0000000e+00 
-2.4836012e-03 7.0720780e-02 0.0000000e+00 
-5.8404669e-03 7.0437085e-02 0.0000000e+00 
-9.2025158e-03 7.0175412e-02 0.0000000e+00 
6.0907865e-04 7.5584797e-02 0.0000000e+00 
-2.8302347e-03 7.5265051e-02 0.0000000e+00 
-6.2720032e-03 7.4967123e-02 0.0000000e+00 
-9.7189530e-03 7.4691338e-02 0.0000000e+00 
3.2436395e-04 8.0256334e-02 0.0000000e+00 
-3.1975308e-03 7.9921423e-02 0.0000000e+00 
-6.7219260e-03 7.9608489e-02 0.0000000e+00 
-1.0251516e-02 7.9316457e-02 0.0000000e+00 
1.7370612e-05 8.5034173e-02 0.0000000e+00 
-3.5853052e-03 8.4686300e-02 0.0000000e+00 
-7.1904113e-03 8.4359157e-02 0.0000000e+00 
-1.0800697e-02 8.4053035e-02 0.0000000e+00 
-3.1262603e-04 8.9920602e-02 0.0000000e+00 
-3.9936853e-03 8.9557646e-02 0.0000000e+00 
-7.6772010e-03 8.9215577e-02 0.0000000e+00 
-1.1365893e-02 8.8893287e-02 0.0000000e+00 
-6.6476827e-04 9.4907635e-02 0.0000000e+00 
-4.4224012e-03 9.4531845e-02 0.0000000e+00 
-8.1824042e-03 9.4175700e-02 0.0000000e+00 
-1.1947548e-02 9.3839439e-02 0.0000000e+00 
-1.0397696e-03 9.9997520e-02 0.0000000e+00 
-4.8715032e-03 9.9606876e-02 0.0000000e+00 
-8.7056531e-03 9.9235929e-02 0.0000000e+00 
-1.2545003e-02 9.8883698e-02 0.0000000e+00 
-1.4367233e-03 1.0518222e-01 0.0000000e+00 
-5.3405813e-03 1.0477892e-01 0.0000000e+00 
-9.2470279e-03 1.0439436e-01 0.0000000e+00 
-1.3158700e-02 1.0402829e-01 0.0000000e+00 
-1.8556734e-03 1.1046285e-01 0.0000000e+00 
-5.8300543e-03 1.1004592e-01 0.0000000e+00 
-9.8065558e-03 1.0964728e-01 0.0000000e+00 
-1.3787865e-02 1.0926666e-01 0.0000000e+00 
-2.2968077e-03 1.1583658e-01 0.0000000e+00 
-6.3389604e-03 1.1540533e-01 0.0000000e+00 
-1.0383280e-02 1.1499219e-01 0.0000000e+00 
-1.4432612e-02 1.1459609e-01 0.0000000e+00 
-2.7591606e-03 1.2129664e-01 0.0000000e+00 
-6.8672802e-03 1.2085333e-01 0.0000000e+00 
-1.0977530e-02 1.2042693e-01 0.0000000e+00 
-1.5092767e-02 1.2001757e-01 0.0000000e+00 
-3.2432947e-03 1.2684521e-01 0.0000000e+00 
-7.4149649e-03 1.2638794e-01 0.0000000e+00 
-1.1588725e-02 1.2594769e-01 0.0000000e+00 
-1.5767419e-02 1.2552325e-01 0.0000000e+00 
-3.7481162e-03 1.3247425e-01 0.0000000e+00 
-7.9814420e-03 1.3200541e-01 0.0000000e+00 
-1.2216742e-02 1.3155234e-01 0.0000000e+00 
-1.6456903e-02 1.3111516e-01 0.0000000e+00 
-4.2740903e-03 1.3818585e-01 0.0000000e+00 
-8.5665749e-03 1.3770359e-01 0.0000000e+00 
-1.2860986e-02 1.3723723e-01 0.0000000e+00 
-1.7160191e-02 1.3678549e-01 0.0000000e+00 
-4.8200137e-03 1.4397199e-01 0.0000000e+00 
-9.1697492e-03 1.4347876e-01 0.0000000e+00 
-1.3521291e-02 1.4300014e-01 0.0000000e+00 
-1.7877545e-02 1.4253624e-01 0.0000000e+00 
-5.3862958e-03 1.4983471e-01 0.0000000e+00 
-9.7907764e-03 1.4932869e-01 0.0000000e+00 
-1.4197001e-02 1.4883742e-01 0.0000000e+00 
-1.8607859e-02 1.4835959e-01 0.0000000e+00 
-5.9716755e-03 1.5576602e-01 0.0000000e+00 
-1.0428978e-02 1.5524969e-01 0.0000000e+00 
-1.4887897e-02 1.5474683e-01 0.0000000e+00 
-1.9351358e-02 1.5425750e-01 0.0000000e+00 
-6.5765019e-03 1.6176788e-01 0.0000000e+00 
-1.1084113e-02 1.6123950e-01 0.0000000e+00 
-1.5593267e-02 1.6072470e-01 0.0000000e+00 
-2.0106871e-02 1.6022217e-01 0.0000000e+00 
-7.1994627e-03 1.6783238e-01 0.0000000e+00 
-1.1755447e-02 1.6729442e-01 0.0000000e+00 
-1.6312844e-02 1.6676878e-01 0.0000000e+00 
-2.0874587e-02 1.6625549e-01 0.0000000e+00 
-7.8408461e-03 1.7396139e-01 0.0000000e+00 
-1.2442693e-02 1.7341219e-01 0.0000000e+00 
-1.7045862e-02 1.7287539e-01 0.0000000e+00 
-2.1653272e-02 1.7234970e-01 0.0000000e+00 
-8.4992972e-03 1.8014708e-01 0.0000000e+00 
-1.3145061e-02 1.7958909e-01 0.0000000e+00 
-1.7792011e-02 1.7904228e-01 0.0000000e+00 
-2.2443083e-02 1.7850662e-01 0.0000000e+00 
-9.1750820e-03 1.8639123e-01 0.0000000e+00 
-1.3862209e-02 1.8582290e-01 0.0000000e+00 
-1.8550453e-02 1.8526573e-01 0.0000000e+00 
-2.3242773e-02 1.8471854e-01 0.0000000e+00 
-9.8668474e-03 1.9268605e-01 0.0000000e+00 
-1.4593243e-02 1.9210976e-01 0.0000000e+00 
-1.9320874e-02 1.9154365e-01 0.0000000e+00 
-2.4052511e-02 1.9098726e-01 0.0000000e+00 
-1.0574208e-02 1.9903229e-01 0.0000000e+00 
-1.5338148e-02 1.9844738e-01 0.0000000e+00 
-2.0102839e-02 1.9787222e-01 0.0000000e+00 
-2.4871056e-02 1.9730630e-01 0.0000000e+00 
-1.1296891e-02 2.0542698e-01 0.0000000e+00 
-1.6095650e-02 2.0483319e-01 0.0000000e+00 
-2.0895081e-02 2.0424888e-01 0.0000000e+00 
-2.5698149e-02 2.0367285e-01 0.0000000e+00 
-1.2033618e-02 2.1186373e-01 0.0000000e+00 
-1.6865276e-02 2.1126336e-01 0.0000000e+00 
-2.1697543e-02 2.1067133e-01 0.0000000e+00 
-2.6533344e-02 2.1008754e-01 0.0000000e+00 
-1.2784500e-02 2.1834410e-01 0.0000000e+00 
-1.7646648e-02 2.1773575e-01 0.0000000e+00 
-2.2509274e-02 2.1713577e-01 0.0000000e+00 
-2.7375291e-02 2.1654283e-01 0.0000000e+00 
-1.3548154e-02 2.2486064e-01 0.0000000e+00 
-1.8438818e-02 2.2424670e-01 0.0000000e+00 
-2.3329829e-02 2.2363994e-01 0.0000000e+00 
-2.8224095e-02 2.2304027e-01 0.0000000e+00 
-1.4324605e-02 2.3141481e-01 0.0000000e+00 
-1.9241341e-02 2.3079392e-01 0.0000000e+00 
-2.4158293e-02 2.3018024e-01 0.0000000e+00 
-2.9078351e-02 2.2957244e-01 0.0000000e+00 
-1.5112425e-02 2.3799929e-01 0.0000000e+00 
-2.0053274e-02 2.3737381e-01 0.0000000e+00 
-2.4994214e-02 2.3675439e-01 0.0000000e+00 
-2.9938120e-02 2.3614089e-01 0.0000000e+00 
-1.5911596e-02 2.4461546e-01 0.0000000e+00 
-2.0874151e-02 2.4398410e-01 0.0000000e+00 
-2.5836663e-02 2.4335881e-01 0.0000000e+00 
-3.0801986e-02 2.4273826e-01 0.0000000e+00 
-1.6720695e-02 2.5125617e-01 0.0000000e+00 
-2.1703017e-02 2.5062126e-01 0.0000000e+00 
-2.6685177e-02 2.4999127e-01 0.0000000e+00 
-3.1670004e-02 2.4936607e-01 0.0000000e+00 
-1.7539665e-02 2.5792274e-01 0.0000000e+00 
-2.2539392e-02 2.5728303e-01 0.0000000e+00 
-2.7538820e-02 2.5664824e-01 0.0000000e+00 
-3.2540754e-02 2.5601708e-01 0.0000000e+00 
-1.8367095e-02 2.6460819e-01 0.0000000e+00 
-2.3382315e-02 2.6396595e-01 0.0000000e+00 
-2.8397123e-02 2.6332752e-01 0.0000000e+00 
-3.3414292e-02 2.6269277e-01 0.0000000e+00 
-1.9202891e-02 2.7131375e-01 0.0000000e+00 
-2.4231298e-02 2.7066779e-01 0.0000000e+00 
-2.9259154e-02 2.7002564e-01 0.0000000e+00 
-3.4289203e-02 2.6938602e-01 0.0000000e+00 
-2.0045666e-02 2.7803266e-01 0.0000000e+00 
-2.5085385e-02 2.7738519e-01 0.0000000e+00 
-3.0124444e-02 2.7674045e-01 0.0000000e+00 
-3.5165546e-02 2.7609830e-01 0.0000000e+00 
-2.0895327e-02 2.8476609e-01 0.0000000e+00 
-2.5944073e-02 2.8411599e-01 0.0000000e+00 
-3.0992047e-02 2.8346855e-01 0.0000000e+00 
-3.6041951e-02 2.8282263e-01 0.0000000e+00 
-2.1750541e-02 2.9150742e-01 0.0000000e+00 
-2.6806371e-02 2.9085679e-01 0.0000000e+00 
-3.1861532e-02 2.9020798e-01 0.0000000e+00 
-3.6918526e-02 2.8956048e-01 0.0000000e+00 
-2.2610707e-02 2.9825702e-01 0.0000000e+00 
-2.7672057e-02 2.9760545e-01 0.0000000e+00 
-3.2732359e-02 2.9695528e-01 0.0000000e+00 
-3.7794003e-02 2.9630603e-01 0.0000000e+00 
-2.3475354e-02 3.0501232e-01 0.0000000e+00 
-2.8539910e-02 3.0435969e-01 0.0000000e+00 
-3.3603312e-02 3.0370821e-01 0.0000000e+00 
-3.8668105e-02 3.0305680e-01 0.0000000e+00 
-2.4343298e-02 3.1176807e-01 0.0000000e+00 
-2.9409376e-02 3.1111634e-01 0.0000000e+00 
-3.4474278e-02 3.1046482e-01 0.0000000e+00 
-3.9540460e-02 3.0981338e-01 0.0000000e+00 
-2.5214406e-02 3.1852540e-01 0.0000000e+00 
-3.0280028e-02 3.1787353e-01 0.0000000e+00 
-3.5344346e-02 3.1722185e-01 0.0000000e+00 
-4.0409765e-02 3.1656922e-01 0.0000000e+00 
-2.6087470e-02 3.2527834e-01 0.0000000e+00 
-3.1150972e-02 3.2462829e-01 0.0000000e+00 
-3.6213096e-02 3.2397748e-01 0.0000000e+00 
-4.1276195e-02 3.2332582e-01 0.0000000e+00 
-2.6962322e-02 3.3202796e-01 0.0000000e+00 
-3.2021761e-02 3.3137871e-01 0.0000000e+00 
-3.7079709e-02 3.3072869e-01 0.0000000e+00 
-4.2138454e-02 3.3007681e-01 0.0000000e+00 
-2.7837768e-02 3.3876855e-01 0.0000000e+00 
-3.2891562e-02 3.3812198e-01 0.0000000e+00 
-3.7943803e-02 3.3747374e-01 0.0000000e+00 
-4.2996723e-02 3.3682374e-01 0.0000000e+00 
-2.8713646e-02 3.4550115e-01 0.0000000e+00 
-3.3759953e-02 3.4485627e-01 0.0000000e+00 
-3.8804601e-02 3.4420972e-01 0.0000000e+00 
-4.3849753e-02 3.4356044e-01 0.0000000e+00 
-2.9588818e-02 3.5222032e-01 0.0000000e+00 
-3.4626141e-02 3.5157894e-01 0.0000000e+00 
-3.9661755e-02 3.5093502e-01 0.0000000e+00 
-4.4697764e-02 3.5028849e-01 0.0000000e+00 
-3.0463131e-02 3.5892712e-01 0.0000000e+00 
-3.5489735e-02 3.5828826e-01 0.0000000e+00 
-4.0514536e-02 3.5764686e-01 0.0000000e+00 
-4.5539555e-02 3.5700193e-01 0.0000000e+00 
-3.1335506e-02 3.6561636e-01 0.0000000e+00 
-3.6349990e-02 3.6498174e-01 0.0000000e+00 
-4.1362631e-02 3.6434376e-01 0.0000000e+00 
-4.6375394e-02 3.6370240e-01 0.0000000e+00 
-3.2205805e-02 3.7228911e-01 0.0000000e+00 
-3.7206548e-02 3.7165778e-01 0.0000000e+00 
-4.2205366e-02 3.7102310e-01 0.0000000e+00 
-4.7204129e-02 3.7038414e-01 0.0000000e+00 
-3.3073011e-02 3.7894048e-01 0.0000000e+00 
-3.8058717e-02 3.7831405e-01 0.0000000e+00 
-4.3042467e-02 3.7768351e-01 0.0000000e+00 
-4.8026073e-02 3.7704885e-01 0.0000000e+00 
-3.3937028e-02 3.8557154e-01 0.0000000e+00 
-3.8906167e-02 3.8494910e-01 0.0000000e+00 
-4.3873300e-02 3.8432253e-01 0.0000000e+00 
-4.8840159e-02 3.8369102e-01 0.0000000e+00 
-3.4796925e-02 3.9217764e-01 0.0000000e+00 
-3.9748230e-02 3.9156069e-01 0.0000000e+00 
-4.4697655e-02 3.9093904e-01 0.0000000e+00 
-4.9646773e-02 3.9031242e-01 0.0000000e+00 
-3.5652263e-02 3.9875935e-01 0.0000000e+00 
-4.0584811e-02 3.9814746e-01 0.0000000e+00 
-4.5515274e-02 3.9753063e-01 0.0000000e+00 
-5.0445006e-02 3.9690863e-01 0.0000000e+00 
-3.6502731e-02 4.0531510e-01 0.0000000e+00 
-4.1415099e-02 4.0470809e-01 0.0000000e+00 
-4.6325352e-02 4.0409599e-01 0.0000000e+00 
-5.1234903e-02 4.0347814e-01 0.0000000e+00 
-3.7347555e-02 4.1184156e-01 0.0000000e+00 
-4.2238829e-02 4.1124072e-01 0.0000000e+00 
-4.7128034e-02 4.1063421e-01 0.0000000e+00 
-5.2016508e-02 4.1002211e-01 0.0000000e+00 
-3.8186730e-02 4.1833996e-01 0.0000000e+00 
-4.3055826e-02 4.1774441e-01 0.0000000e+00 
-4.7922826e-02 4.1714325e-01 0.0000000e+00 
-5.2788927e-02 4.1653578e-01 0.0000000e+00 
-3.9019516e-02 4.2480656e-01 0.0000000e+00 
-4.3865615e-02 4.2421755e-01 0.0000000e+00 
-4.8709620e-02 4.2362237e-01 0.0000000e+00 
-5.3552696e-02 4.2302112e-01 0.0000000e+00 
-3.9845920e-02 4.3124261e-01 0.0000000e+00 
-4.4668029e-02 4.3065926e-01 0.0000000e+00 
-4.9488037e-02 4.3006982e-01 0.0000000e+00 
-5.4306955e-02 4.2947365e-01 0.0000000e+00 
-4.0665236e-02 4.3764465e-01 0.0000000e+00 
-4.5462675e-02 4.3706814e-01 0.0000000e+00 
-5.0258025e-02 4.3648502e-01 0.0000000e+00 
-5.5052271e-02 4.3589544e-01 0.0000000e+00 
-4.1477513e-02 4.4401403e-01 0.0000000e+00 
-4.6249432e-02 4.4344348e-01 0.0000000e+00 
-5.1019269e-02 4.4286642e-01 0.0000000e+00 
-5.5787845e-02 4.4228228e-01 0.0000000e+00 
-4.2282110e-02 4.5034758e-01 0.0000000e+00 
-4.7027967e-02 4.4978408e-01 0.0000000e+00 
-5.1771764e-02 4.4921360e-01 0.0000000e+00 
-5.6514301e-02 4.4863634e-01 0.0000000e+00 
-4.3079115e-02 4.5664674e-01 0.0000000e+00 
-4.7798206e-02 4.5608941e-01 0.0000000e+00 
-5.2515259e-02 4.5552522e-01 0.0000000e+00 
-5.7230898e-02 4.5495369e-01 0.0000000e+00 
-4.3867951e-02 4.6290862e-01 0.0000000e+00 
-4.8559877e-02 4.6235846e-01 0.0000000e+00 
-5.3249793e-02 4.6180104e-01 0.0000000e+00 
-5.7938313e-02 4.6123659e-01 0.0000000e+00 
-4.4648748e-02 4.6913475e-01 0.0000000e+00 
-4.9312950e-02 4.6859090e-01 0.0000000e+00 
-5.3975181e-02 4.6803993e-01 0.0000000e+00 
-5.8635863e-02 4.6748141e-01 0.0000000e+00 
-4.5420987e-02 4.7532256e-01 0.0000000e+00 
-5.0057216e-02 4.7478592e-01 0.0000000e+00 
-5.4691503e-02 4.7424182e-01 0.0000000e+00 
-5.9324274e-02 4.7369052e-01 0.0000000e+00 
-4.6184860e-02 4.8147366e-01 0.0000000e+00 
-5.0792678e-02 4.8094339e-01 0.0000000e+00 
-5.5398625e-02 4.8040579e-01 0.0000000e+00 
-6.0002937e-02 4.7986055e-01 0.0000000e+00 
-4.6939918e-02 4.8758573e-01 0.0000000e+00 
-5.1519165e-02 4.8706264e-01 0.0000000e+00 
-5.6096680e-02 4.8653203e-01 0.0000000e+00 
-6.0672636e-02 4.8599399e-01 0.0000000e+00 
-4.7686126e-02 4.9366009e-01 0.0000000e+00 
-5.2236870e-02 4.9314367e-01 0.0000000e+00 
-5.6785826e-02 4.9261975e-01 0.0000000e+00 
-6.1332927e-02 4.9208843e-01 0.0000000e+00 
-4.8423505e-02 4.9969665e-01 0.0000000e+00 
-5.2945492e-02 4.9918654e-01 0.0000000e+00 
-5.7465770e-02 4.9866899e-01 0.0000000e+00 
-6.1984222e-02 4.9814384e-01 0.0000000e+00 
-4.9151729e-02 5.0569416e-01 0.0000000e+00 
-5.3645157e-02 5.0519101e-01 0.0000000e+00 
-5.8136950e-02 5.0468026e-01 0.0000000e+00 
-6.2627003e-02 5.0416224e-01 0.0000000e+00 
-4.9871130e-02 5.1165457e-01 0.0000000e+00 
-5.4336018e-02 5.1115753e-01 0.0000000e+00 
-5.8799360e-02 5.1065313e-01 0.0000000e+00 
-6.3260833e-02 5.1014117e-01 0.0000000e+00 
-5.0581404e-02 5.1757634e-01 0.0000000e+00 
-5.5018062e-02 5.1708606e-01 0.0000000e+00 
-5.9453211e-02 5.1658826e-01 0.0000000e+00 
-6.3886577e-02 5.1608331e-01 0.0000000e+00 
-5.1282905e-02 5.2346150e-01 0.0000000e+00 
-5.5691448e-02 5.2297713e-01 0.0000000e+00 
-6.0098585e-02 5.2248551e-01 0.0000000e+00 
-6.4503818e-02 5.2198649e-01 0.0000000e+00 
-5.1975348e-02 5.2930878e-01 0.0000000e+00 
-5.6356223e-02 5.2883091e-01 0.0000000e+00 
-6.0735727e-02 5.2834567e-01 0.0000000e+00 
-6.5113428e-02 5.2785345e-01 0.0000000e+00 
-5.2659131e-02 5.3512030e-01 0.0000000e+00 
-5.7012575e-02 5.3464808e-01 0.0000000e+00 
-6.1364764e-02 5.3416878e-01 0.0000000e+00 
-6.5715031e-02 5.3368230e-01 0.0000000e+00 
-5.3334006e-02 5.4089501e-01 0.0000000e+00 
-5.7660594e-02 5.4042898e-01 0.0000000e+00 
-6.1985961e-02 5.3995579e-01 0.0000000e+00 
-6.6309518e-02 5.3947587e-01 0.0000000e+00 
-5.4000409e-02 5.4663514e-01 0.0000000e+00 
-5.8300496e-02 5.4617446e-01 0.0000000e+00 
-6.2599485e-02 5.4570694e-01 0.0000000e+00 
-6.6896552e-02 5.4523253e-01 0.0000000e+00 
-5.4658125e-02 5.5233985e-01 0.0000000e+00 
-5.8932406e-02 5.5188501e-01 0.0000000e+00 
-6.3205619e-02 5.5142330e-01 0.0000000e+00 
-6.7477033e-02 5.5095513e-01 0.0000000e+00 
-5.5307627e-02 5.5801148e-01 0.0000000e+00 
-5.9556565e-02 5.5756164e-01 0.0000000e+00 
-6.3804565e-02 5.5710527e-01 0.0000000e+00 
-6.8050658e-02 5.5664234e-01 0.0000000e+00 
-5.5948730e-02 5.6364937e-01 0.0000000e+00 
-6.0173132e-02 5.6320499e-01 0.0000000e+00 
-6.4396619e-02 5.6275406e-01 0.0000000e+00 
-6.8618330e-02 5.6229704e-01 0.0000000e+00 
-5.6581954e-02 5.6925594e-01 0.0000000e+00 
-6.0782365e-02 5.6881619e-01 0.0000000e+00 
-6.4982005e-02 5.6837025e-01 0.0000000e+00 
-6.9179793e-02 5.6791815e-01 0.0000000e+00 
-5.7207156e-02 5.7483070e-01 0.0000000e+00 
-6.1384429e-02 5.7439599e-01 0.0000000e+00 
-6.5561042e-02 5.7395517e-01 0.0000000e+00 
-6.9735946e-02 5.7350856e-01 0.0000000e+00 
-5.7824672e-02 5.8037586e-01 0.0000000e+00 
-6.1979739e-02 5.7994563e-01 0.0000000e+00 
-6.6134114e-02 5.7950954e-01 0.0000000e+00 
-7.0286652e-02 5.7906789e-01 0.0000000e+00 
-5.8434819e-02 5.8589250e-01 0.0000000e+00 
-6.2568318e-02 5.8546631e-01 0.0000000e+00 