# vtk DataFile Version 4.0
vtk output
ASCII
DATASET UNSTRUCTURED_GRID
POINTS 604 float
5.5000000e+00 5.9700000e+00 0.0000000e+00 
5.5000000e+00 5.9900000e+00 0.0000000e+00 
5.5266667e+00 5.9700000e+00 0.0000000e+00 
5.5266667e+00 5.9900000e+00 0.0000000e+00 
5.5000000e+00 6.0100000e+00 0.0000000e+00 
5.5266667e+00 6.0100000e+00 0.0000000e+00 
5.5533333e+00 5.9700000e+00 0.0000000e+00 
5.5533333e+00 5.9900000e+00 0.0000000e+00 
5.5000000e+00 6.0300000e+00 0.0000000e+00 
5.5266667e+00 6.0300000e+00 0.0000000e+00 
5.5533333e+00 6.0100000e+00 0.0000000e+00 
5.5800000e+00 5.9700000e+00 0.0000000e+00 
5.5533333e+00 6.0300000e+00 0.0000000e+00 
5.5800000e+00 5.9900000e+00 0.0000000e+00 
5.5800000e+00 6.0100000e+00 0.0000000e+00 
5.5800000e+00 6.0300000e+00 0.0000000e+00 
5.6066667e+00 5.9700000e+00 0.0000000e+00 
5.6066667e+00 5.9900000e+00 0.0000000e+00 
5.6066667e+00 6.0100000e+00 0.0000000e+00 
5.6066667e+00 6.0300000e+00 0.0000000e+00 
5.6333333e+00 5.9700000e+00 0.0000000e+00 
5.6333333e+00 5.9900000e+00 0.0000000e+00 
5.6333333e+00 6.0100000e+00 0.0000000e+00 
5.6333333e+00 6.0300000e+00 0.0000000e+00 
5.6600000e+00 5.9700000e+00 0.0000000e+00 
5.6600000e+00 5.9900000e+00 0.0000000e+00 
5.6600000e+00 6.0100000e+00 0.0000000e+00 
5.6600000e+00 6.0300000e+00 0.0000000e+00 
5.6866667e+00 5.9700000e+00 0.0000000e+00 
5.6866667e+00 5.9900000e+00 0.0000000e+00 
5.6866667e+00 6.0100000e+00 0.0000000e+00 
5.6866667e+00 6.0300000e+00 0.0000000e+00 
5.7133333e+00 5.9700000e+00 0.0000000e+00 
5.7133333e+00 5.9900000e+00 0.0000000e+00 
5.7133333e+00 6.0100000e+00 0.0000000e+00 
5.7133333e+00 6.0300000e+00 0.0000000e+00 
5.7400000e+00 5.9700000e+00 0.0000000e+00 
5.7400000e+00 5.9900000e+00 0.0000000e+00 
5.7400000e+00 6.0100000e+00 0.0000000e+00 
5.7400000e+00 6.0300000e+00 0.0000000e+00 
5.7666667e+00 5.9700000e+00 0.0000000e+00 
5.7666667e+00 5.9900000e+00 0.0000000e+00 
5.7666667e+00 6.0100000e+00 0.0000000e+00 
5.7666667e+00 6.0300000e+00 0.0000000e+00 
5.7933333e+00 5.9700000e+00 0.0000000e+00 
5.7933333e+00 5.9900000e+00 0.0000000e+00 
5.7933333e+00 6.0100000e+00 0.0000000e+00 
5.7933333e+00 6.0300000e+00 0.0000000e+00 
5.8200000e+00 5.9700000e+00 0.0000000e+00 
5.8200000e+00 5.9900000e+00 0.0000000e+00 
5.8200000e+00 6.0100000e+00 0.0000000e+00 
5.8200000e+00 6.0300000e+00 0.0000000e+00 
5.8466667e+00 5.9700000e+00 0.0000000e+00 
5.8466667e+00 5.9900000e+00 0.0000000e+00 
5.8466667e+00 6.0100000e+00 0.0000000e+00 
5.8466667e+00 6.0300000e+00 0.0000000e+00 
5.8733333e+00 5.9700000e+00 0.0000000e+00 
5.8733333e+00 5.9900000e+00 0.0000000e+00 
5.8733333e+00 6.0100000e+00 0.0000000e+00 
5.8733333e+00 6.0300000e+00 0.0000000e+00 
5.9000000e+00 5.9700000e+00 0.0000000e+00 
5.9000000e+00 5.9900000e+00 0.0000000e+00 
5.9000000e+00 6.0100000e+00 0.0000000e+00 
5.9000000e+00 6.0300000e+00 0.0000000e+00 
5.9266667e+00 5.9700000e+00 0.0000000e+00 
5.9266667e+00 5.9900000e+00 0.0000000e+00 
5.9266667e+00 6.0100000e+00 0.0000000e+00 
5.9266667e+00 6.0300000e+00 0.0000000e+00 
5.9533333e+00 5.9700000e+00 0.0000000e+00 
5.9533333e+00 5.9900000e+00 0.0000000e+00 
5.9533333e+00 6.0100000e+00 0.0000000e+00 
5.9533333e+00 6.0300000e+00 0.0000000e+00 
5.9800000e+00 5.9700000e+00 0.0000000e+00 
5.9800000e+00 5.9900000e+00 0.0000000e+00 
5.9800000e+00 6.0100000e+00 0.0000000e+00 
5.9800000e+00 6.0300000e+00 0.0000000e+00 
6.0066667e+00 5.9700000e+00 0.0000000e+00 
6.0066667e+00 5.9900000e+00 0.0000000e+00 
6.0066667e+00 6.0100000e+00 0.0000000e+00 
6.0066667e+00 6.0300000e+00 0.0000000e+00 
6.0333333e+00 5.9700000e+00 0.0000000e+00 
6.0333333e+00 5.9900000e+00 0.0000000e+00 
6.0333333e+00 6.0100000e+00 0.0000000e+00 
6.0333333e+00 6.0300000e+00 0.0000000e+00 
6.0600000e+00 5.9700000e+00 0.0000000e+00 
6.0600000e+00 5.9900000e+00 0.0000000e+00 
6.0600000e+00 6.0100000e+00 0.0000000e+00 
6.0600000e+00 6.0300000e+00 0.0000000e+00 
6.0866667e+00 5.9700000e+00 0.0000000e+00 
6.0866667e+00 5.9900000e+00 0.0000000e+00 
6.0866667e+00 6.0100000e+00 0.0000000e+00 
6.0866667e+00 6.0300000e+00 0.0000000e+00 
6.1133333e+00 5.9700000e+00 0.0000000e+00 
6.1133333e+00 5.9900000e+00 0.0000000e+00 
6.1133333e+00 6.0100000e+00 0.0000000e+00 
6.1133333e+00 6.0300000e+00 0.0000000e+00 
6.1400000e+00 5.9700000e+00 0.0000000e+00 
6.1400000e+00 5.9900000e+00 0.0000000e+00 
6.1400000e+00 6.0100000e+00 0.0000000e+00 
6.1400000e+00 6.0300000e+00 0.0000000e+00 
6.1666667e+00 5.9700000e+00 0.0000000e+00 
6.1666667e+00 5.9900000e+00 0.0000000e+00 
6.1666667e+00 6.0100000e+00 0.0000000e+00 
6.1666667e+00 6.0300000e+00 0.0000000e+00 
6.1933333e+00 5.9700000e+00 0.0000000e+00 
6.1933333e+00 5.9900000e+00 0.0000000e+00 
6.1933333e+00 6.0100000e+00 0.0000000e+00 
6.1933333e+00 6.0300000e+00 0.0000000e+00 
6.2200000e+00 5.9700000e+00 0.0000000e+00 
6.2200000e+00 5.9900000e+00 0.0000000e+00 
6.2200000e+00 6.0100000e+00 0.0000000e+00 
6.2200000e+00 6.0300000e+00 0.0000000e+00 
6.2466667e+00 5.9700000e+00 0.0000000e+00 
6.2466667e+00 5.9900000e+00 0.0000000e+00 
6.2466667e+00 6.0100000e+00 0.0000000e+00 
6.2466667e+00 6.0300000e+00 0.0000000e+00 
6.2733333e+00 5.9700000e+00 0.0000000e+00 
6.2733333e+00 5.9900000e+00 0.0000000e+00 
6.2733333e+00 6.0100000e+00 0.0000000e+00 
6.2733333e+00 6.0300000e+00 0.0000000e+00 
6.3000000e+00 5.9700000e+00 0.0000000e+00 
6.3000000e+00 5.9900000e+00 0.0000000e+00 
6.3000000e+00 6.0100000e+00 0.0000000e+00 
6.3000000e+00 6.0300000e+00 0.0000000e+00 
6.3266667e+00 5.9700000e+00 0.0000000e+00 
6.3266667e+00 5.9900000e+00 0.0000000e+00 
6.3266667e+00 6.0100000e+00 0.0000000e+00 
6.3266667e+00 6.0300000e+00 0.0000000e+00 
6.3533333e+00 5.9700000e+00 0.0000000e+00 
6.3533333e+00 5.9900000e+00 0.0000000e+00 
6.3533333e+00 6.0100000e+00 0.0000000e+00 
6.3533333e+00 6.0300000e+00 0.0000000e+00 
6.3800000e+00 5.9700000e+00 0.0000000e+00 
6.3800000e+00 5.9900000e+00 0.0000000e+00 
6.3800000e+00 6.0100000e+00 0.0000000e+00 
6.3800000e+00 6.0300000e+00 0.0000000e+00 
6.4066667e+00 5.9700000e+00 0.0000000e+00 
6.4066667e+00 5.9900000e+00 0.0000000e+00 
6.4066667e+00 6.0100000e+00 0.0000000e+00 
6.4066667e+00 6.0300000e+00 0.0000000e+00 
6.4333333e+00 5.9700000e+00 0.0000000e+00 
6.4333333e+00 5.9900000e+00 0.0000000e+00 
6.4333333e+00 6.0100000e+00 0.0000000e+00 
6.4333333e+00 6.0300000e+00 0.0000000e+00 
6.4600000e+00 5.9700000e+00 0.0000000e+00 
6.4600000e+00 5.9900000e+00 0.0000000e+00 
6.4600000e+00 6.0100000e+00 0.0000000e+00 
6.4600000e+00 6.0300000e+00 0.0000000e+00 
6.4866667e+00 5.9700000e+00 0.0000000e+00 
6.4866667e+00 5.9900000e+00 0.0000000e+00 
6.4866667e+00 6.0100000e+00 0.0000000e+00 
6.4866667e+00 6.0300000e+00 0.0000000e+00 
6.5133333e+00 5.9700000e+00 0.0000000e+00 
6.5133333e+00 5.9900000e+00 0.0000000e+00 
6.5133333e+00 6.0100000e+00 0.0000000e+00 
6.5133333e+00 6.0300000e+00 0.0000000e+00 
6.5400000e+00 5.9700000e+00 0.0000000e+00 
6.5400000e+00 5.9900000e+00 0.0000000e+00 
6.5400000e+00 6.0100000e+00 0.0000000e+00 
6.5400000e+00 6.0300000e+00 0.0000000e+00 
6.5666667e+00 5.9700000e+00 0.0000000e+00 
6.5666667e+00 5.9900000e+00 0.0000000e+00 
6.5666667e+00 6.0100000e+00 0.0000000e+00 
6.5666667e+00 6.0300000e+00 0.0000000e+00 
6.5933333e+00 5.9700000e+00 0.0000000e+00 
6.5933333e+00 5.9900000e+00 0.0000000e+00 
6.5933333e+00 6.0100000e+00 0.0000000e+00 
6.5933333e+00 6.0300000e+00 0.0000000e+00 
6.6200000e+00 5.9700000e+00 0.0000000e+00 
6.6200000e+00 5.9900000e+00 0.0000000e+00 
6.6200000e+00 6.0100000e+00 0.0000000e+00 
6.6200000e+00 6.0300000e+00 0.0000000e+00 
6.6466667e+00 5.9700000e+00 0.0000000e+00 
6.6466667e+00 5.9900000e+00 0.0000000e+00 
6.6466667e+00 6.0100000e+00 0.0000000e+00 
6.6466667e+00 6.0300000e+00 0.0000000e+00 
6.6733333e+00 5.9700000e+00 0.0000000e+00 
6.6733333e+00 5.9900000e+00 0.0000000e+00 
6.6733333e+00 6.0100000e+00 0.0000000e+00 
6.6733333e+00 6.0300000e+00 0.0000000e+00 
6.7000000e+00 5.9700000e+00 0.0000000e+00 
6.7000000e+00 5.9900000e+00 0.0000000e+00 
6.7000000e+00 6.0100000e+00 0.0000000e+00 
6.7000000e+00 6.0300000e+00 0.0000000e+00 
6.7266667e+00 5.9700000e+00 0.0000000e+00 
6.7266667e+00 5.9900000e+00 0.0000000e+00 
6.7266667e+00 6.0100000e+00 0.0000000e+00 
6.7266667e+00 6.0300000e+00 0.0000000e+00 
6.7533333e+00 5.9700000e+00 0.0000000e+00 
6.7533333e+00 5.9900000e+00 0.0000000e+00 
6.7533333e+00 6.0100000e+00 0.0000000e+00 
6.7533333e+00 6.0300000e+00 0.0000000e+00 
6.7800000e+00 5.9700000e+00 0.0000000e+00 
6.7800000e+00 5.9900000e+00 0.0000000e+00 
6.7800000e+00 6.0100000e+00 0.0000000e+00 
6.7800000e+00 6.0300000e+00 0.0000000e+00 
6.8066667e+00 5.9700000e+00 0.0000000e+00 
6.8066667e+00 5.9900000e+00 0.0000000e+00 
6.8066667e+00 6.0100000e+00 0.0000000e+00 
6.8066667e+00 6.0300000e+00 0.0000000e+00 
6.8333333e+00 5.9700000e+00 0.0000000e+00 
6.8333333e+00 5.9900000e+00 0.0000000e+00 
6.8333333e+00 6.0100000e+00 0.0000000e+00 
6.8333333e+00 6.0300000e+00 0.0000000e+00 
6.8600000e+00 5.9700000e+00 0.0000000e+00 
6.8600000e+00 5.9900000e+00 0.0000000e+00 
6.8600000e+00 6.0100000e+00 0.0000000e+00 
6.8600000e+00 6.0300000e+00 0.0000000e+00 
6.8866667e+00 5.9700000e+00 0.0000000e+00 
6.8866667e+00 5.9900000e+00 0.0000000e+00 
6.8866667e+00 6.0100000e+00 0.0000000e+00 
6.8866667e+00 6.0300000e+00 0.0000000e+00 
6.9133333e+00 5.9700000e+00 0.0000000e+00 
6.9133333e+00 5.9900000e+00 0.0000000e+00 
6.9133333e+00 6.0100000e+00 0.0000000e+00 
6.9133333e+00 6.0300000e+00 0.0000000e+00 
6.9400000e+00 5.9700000e+00 0.0000000e+00 
6.9400000e+00 5.9900000e+00 0.0000000e+00 
6.9400000e+00 6.0100000e+00 0.0000000e+00 
6.9400000e+00 6.0300000e+00 0.0000000e+00 
6.9666667e+00 5.9700000e+00 0.0000000e+00 
6.9666667e+00 5.9900000e+00 0.0000000e+00 
6.9666667e+00 6.0100000e+00 0.0000000e+00 
6.9666667e+00 6.0300000e+00 0.0000000e+00 
6.9933333e+00 5.9700000e+00 0.0000000e+00 
6.9933333e+00 5.9900000e+00 0.0000000e+00 
6.9933333e+00 6.0100000e+00 0.0000000e+00 
6.9933333e+00 6.0300000e+00 0.0000000e+00 
7.0200000e+00 5.9700000e+00 0.0000000e+00 
7.0200000e+00 5.9900000e+00 0.0000000e+00 
[...]
POINT_DATA 604
FIELD FieldData 2
DISPLACEMENT 3 604  float
0.0000000e+00 0.0000000e+00 0.0000000e+00 
0.0000000e+00 0.0000000e+00 0.0000000e+00 
2.2862056e-04 1.3675421e-04 0.0000000e+00 
7.1726863e-05 8.7288663e-05 0.0000000e+00 
0.0000000e+00 0.0000000e+00 0.0000000e+00 
-7.6636806e-05 8.6931096e-05 0.0000000e+00 
4.6317416e-04 4.4506109e-04 0.0000000e+00 
1.5024612e-04 4.0330213e-04 0.0000000e+00 
0.0000000e+00 0.0000000e+00 0.0000000e+00 
-2.3497194e-04 1.3554320e-04 0.0000000e+00 
-1.6468046e-04 4.0194017e-04 0.0000000e+00 
6.9417727e-04 9.7805849e-04 0.0000000e+00 
-4.7898483e-04 4.4221081e-04 0.0000000e+00 
2.2145393e-04 9.3055241e-04 0.0000000e+00 
-2.5181883e-04 9.2529776e-04 0.0000000e+00 
-7.2649684e-04 9.6156664e-04 0.0000000e+00 
9.1946440e-04 1.7204189e-03 0.0000000e+00 
2.8805573e-04 1.6705002e-03 0.0000000e+00 
-3.4438787e-04 1.6615085e-03 0.0000000e+00 
-9.7838074e-04 1.6949061e-03 0.0000000e+00 
1.1372220e-03 2.6807731e-03 0.0000000e+00 
3.4766934e-04 2.6235569e-03 0.0000000e+00 
-4.4330045e-04 2.6081576e-03 0.0000000e+00 
-1.2363126e-03 2.6340650e-03 0.0000000e+00 
1.3458906e-03 3.8498045e-03 0.0000000e+00 
3.9877137e-04 3.7875122e-03 0.0000000e+00 
-5.5034278e-04 3.7662900e-03 0.0000000e+00 
-1.5020560e-03 3.7867776e-03 0.0000000e+00 
1.5439950e-03 5.2333514e-03 0.0000000e+00 
4.3889745e-04 5.1630753e-03 0.0000000e+00 
-6.6775720e-04 5.1337478e-03 0.0000000e+00 
-1.7766807e-03 5.1460364e-03 0.0000000e+00 
1.7291352e-03 6.8306821e-03 0.0000000e+00 
4.6771321e-04 6.7495946e-03 0.0000000e+00 
-7.9582449e-04 6.7099159e-03 0.0000000e+00 
-2.0623111e-03 6.7110721e-03 0.0000000e+00 
1.9003871e-03 8.6342912e-03 0.0000000e+00 
4.8294501e-04 8.5447082e-03 0.0000000e+00 
-9.3693667e-04 8.4953076e-03 0.0000000e+00 
-2.3601517e-03 8.4875323e-03 0.0000000e+00 
2.0554840e-03 1.0652000e-02 0.0000000e+00 
4.8289190e-04 1.0549090e-02 0.0000000e+00 
-1.0924575e-03 1.0487354e-02 0.0000000e+00 
-2.6715074e-03 1.0465902e-02 0.0000000e+00 
2.1933317e-03 1.2873950e-02 0.0000000e+00 
4.6612384e-04 1.2760312e-02 0.0000000e+00 
-1.2640456e-03 1.2686434e-02 0.0000000e+00 
-2.9981967e-03 1.2653769e-02 0.0000000e+00 
2.3116621e-03 1.5307890e-02 0.0000000e+00 
4.3096727e-04 1.5178628e-02 0.0000000e+00 
-1.4530109e-03 1.5090122e-02 0.0000000e+00 
-3.3413448e-03 1.5041428e-02 0.0000000e+00 
2.4096262e-03 1.7943658e-02 0.0000000e+00 
3.7603792e-04 1.7801490e-02 0.0000000e+00 
-1.6610245e-03 1.7698613e-02 0.0000000e+00 
-3.7027092e-03 1.7636466e-02 0.0000000e+00 
2.4848963e-03 2.0789011e-02 0.0000000e+00 
2.9969049e-04 2.0629027e-02 0.0000000e+00 
-1.8893011e-03 2.0509325e-02 0.0000000e+00 
-4.0832853e-03 2.0428903e-02 0.0000000e+00 
2.5367965e-03 2.3833489e-02 0.0000000e+00 
2.0063925e-04 2.3658518e-02 0.0000000e+00 
-2.1394794e-03 2.3522314e-02 0.0000000e+00 
-4.4848376e-03 2.3426294e-02 0.0000000e+00 
2.5629608e-03 2.7084840e-02 0.0000000e+00 
7.7274956e-05 2.6889966e-02 0.0000000e+00 
-2.4126685e-03 2.6734842e-02 0.0000000e+00 
-4.9082157e-03 2.6618406e-02 0.0000000e+00 
2.5628883e-03 3.0532306e-02 0.0000000e+00 
-7.1579892e-05 3.0320473e-02 0.0000000e+00 
-2.7104677e-03 3.0146827e-02 0.0000000e+00 
-5.3551863e-03 3.0012755e-02 0.0000000e+00 
2.5341942e-03 3.4183618e-02 0.0000000e+00 
-2.4749496e-04 3.3949912e-02 0.0000000e+00 
-3.0338751e-03 3.3755367e-02 0.0000000e+00 
-5.8264372e-03 3.3598857e-02 0.0000000e+00 
2.4765529e-03 3.8027748e-02 0.0000000e+00 
-4.5152570e-04 3.7775212e-02 0.0000000e+00 
-3.3844382e-03 3.7560239e-02 0.0000000e+00 
-6.3237260e-03 3.7384157e-02 0.0000000e+00 
2.3875029e-03 4.2072356e-02 0.0000000e+00 
-6.8516206e-04 4.1796171e-02 0.0000000e+00 
-3.7629828e-03 4.1558332e-02 0.0000000e+00 
-6.8476552e-03 4.1357949e-02 0.0000000e+00 
2.2668221e-03 4.6306071e-02 0.0000000e+00 
-9.4924209e-04 4.6009211e-02 0.0000000e+00 
-4.1710489e-03 4.5749607e-02 0.0000000e+00 
-7.4000508e-03 4.5527664e-02 0.0000000e+00 
2.1130759e-03 5.0734381e-02 0.0000000e+00 
-1.2460061e-03 5.0413978e-02 0.0000000e+00 
-4.6102109e-03 5.0130608e-02 0.0000000e+00 
-7.9811650e-03 4.9884689e-02 0.0000000e+00 
1.9243071e-03 5.5355474e-02 0.0000000e+00 
-1.5751762e-03 5.5009050e-02 0.0000000e+00 
-5.0801536e-03 5.4699984e-02 0.0000000e+00 
-8.5926090e-03 5.4427240e-02 0.0000000e+00 
1.7005993e-03 6.0159884e-02 0.0000000e+00 
-1.9383045e-03 5.9790595e-02 0.0000000e+00 
-5.5829440e-03 5.9457044e-02 0.0000000e+00 
-9.2352820e-03 5.9160442e-02 0.0000000e+00 
1.4395525e-03 6.5155202e-02 0.0000000e+00 
-2.3367955e-03 6.4758242e-02 0.0000000e+00 
-6.1190373e-03 6.4397949e-02 0.0000000e+00 
-9.9092714e-03 6.4072909e-02 0.0000000e+00 
1.1413904e-03 7.0329306e-02 0.0000000e+00 
-2.7711558e-03 6.9908190e-02 0.0000000e+00 
-6.6896980e-03 6.9521930e-02 0.0000000e+00 
-1.0616355e-02 6.9171703e-02 0.0000000e+00 
8.0384112e-04 7.5689655e-02 0.0000000e+00 
-3.2426719e-03 7.5239591e-02 0.0000000e+00 
-7.2953154e-03 7.4825309e-02 0.0000000e+00 
-1.1356354e-02 7.4445307e-02 0.0000000e+00 
4.2739298e-04 8.1223879e-02 0.0000000e+00 
-3.7517371e-03 8.0748519e-02 0.0000000e+00 
-7.9370902e-03 8.0307084e-02 0.0000000e+00 
-1.2130939e-02 7.9900681e-02 0.0000000e+00 
9.8333153e-06 8.6939333e-02 0.0000000e+00 
-4.2995537e-03 8.6433960e-02 0.0000000e+00 
-8.6152617e-03 8.5963418e-02 0.0000000e+00 
-1.2939723e-02 8.5526118e-02 0.0000000e+00 
-4.4816507e-04 9.2823450e-02 0.0000000e+00 
-4.8863453e-03 9.2291828e-02 0.0000000e+00 
-9.3309256e-03 9.1793137e-02 0.0000000e+00 
-1.3784330e-02 9.1328409e-02 0.0000000e+00 
-9.4873087e-04 9.8883435e-02 0.0000000e+00 
-5.5132178e-03 9.8320936e-02 0.0000000e+00 
-1.0084164e-02 9.7792253e-02 0.0000000e+00 
-1.4664167e-02 9.7295711e-02 0.0000000e+00 
-1.4910062e-03 1.0510655e-01 0.0000000e+00 
-6.1802218e-03 1.0451705e-01 0.0000000e+00 
-1.0875963e-02 1.0395942e-01 0.0000000e+00 
-1.5580801e-02 1.0343462e-01 0.0000000e+00 
-2.0770184e-03 1.1149983e-01 0.0000000e+00 
-6.8883613e-03 1.1087880e-01 0.0000000e+00 
-1.1706245e-02 1.1029051e-01 0.0000000e+00 
-1.6533428e-02 1.0973320e-01 0.0000000e+00 
-2.7057284e-03 1.1805044e-01 0.0000000e+00 
-7.6375085e-03 1.1740182e-01 0.0000000e+00 
-1.2575875e-02 1.1678400e-01 0.0000000e+00 
-1.7523537e-02 1.1619779e-01 0.0000000e+00 
-3.3791187e-03 1.2476516e-01 0.0000000e+00 
-8.4285320e-03 1.2408466e-01 0.0000000e+00 
-1.3484558e-02 1.2343559e-01 0.0000000e+00 
-1.8550201e-02 1.2281640e-01 0.0000000e+00 
-4.0960481e-03 1.3163100e-01 0.0000000e+00 
-9.2609947e-03 1.3092247e-01 0.0000000e+00 
-1.4433113e-02 1.3024390e-01 0.0000000e+00 
-1.9614920e-02 1.2959519e-01 0.0000000e+00 
-4.8571764e-03 1.3865252e-01 0.0000000e+00 
-1.0136383e-02 1.3791356e-01 0.0000000e+00 
-1.5421962e-02 1.3720426e-01 0.0000000e+00 
-2.0716648e-02 1.3652440e-01 0.0000000e+00 
-5.6635008e-03 1.4582658e-01 0.0000000e+00 
-1.1053536e-02 1.4505561e-01 0.0000000e+00 
-1.6449943e-02 1.4431440e-01 0.0000000e+00 
-2.1856041e-02 1.4360125e-01 0.0000000e+00 
-6.5138262e-03 1.5314249e-01 0.0000000e+00 
-1.2012746e-02 1.5234342e-01 0.0000000e+00 
-1.7518189e-02 1.5157220e-01 0.0000000e+00 
-2.3033310e-02 1.5082936e-01 0.0000000e+00 
-7.4097557e-03 1.6060643e-01 0.0000000e+00 
-1.3014654e-02 1.5977528e-01 0.0000000e+00 
-1.8625928e-02 1.5897269e-01 0.0000000e+00 
-2.4246966e-02 1.5819660e-01 0.0000000e+00 
-8.3497327e-03 1.6820524e-01 0.0000000e+00 
-1.4058434e-02 1.6734624e-01 0.0000000e+00 
-1.9773508e-02 1.6651375e-01 0.0000000e+00 
-2.5498245e-02 1.6570823e-01 0.0000000e+00 
-9.3351251e-03 1.7594479e-01 0.0000000e+00 
-1.5144516e-02 1.7505411e-01 0.0000000e+00 
-2.0960104e-02 1.7419062e-01 0.0000000e+00 
-2.6785412e-02 1.7335218e-01 0.0000000e+00 
-1.0364138e-02 1.8381197e-01 0.0000000e+00 
-1.6271950e-02 1.8289389e-01 0.0000000e+00 
-2.2185947e-02 1.8200095e-01 0.0000000e+00 
-2.8109535e-02 1.8113350e-01 0.0000000e+00 
-1.1437980e-02 1.9181237e-01 0.0000000e+00 
-1.7441033e-02 1.9086324e-01 0.0000000e+00 
-2.3450058e-02 1.8993990e-01 0.0000000e+00 
-2.9468694e-02 1.8904012e-01 0.0000000e+00 
-1.2554714e-02 1.9993295e-01 0.0000000e+00 
-1.8650648e-02 1.9895710e-01 0.0000000e+00 
-2.4752527e-02 1.9800498e-01 0.0000000e+00 
-3.0863860e-02 1.9707682e-01 0.0000000e+00 
-1.3715376e-02 2.0817903e-01 0.0000000e+00 
-1.9900953e-02 2.0717298e-01 0.0000000e+00 
-2.6092227e-02 2.0619127e-01 0.0000000e+00 
-3.2292939e-02 2.0523160e-01 0.0000000e+00 
-1.4917893e-02 2.1653767e-01 0.0000000e+00 
-2.1190673e-02 2.1550578e-01 0.0000000e+00 
-2.7469111e-02 2.1449617e-01 0.0000000e+00 
-3.3756801e-02 2.1350898e-01 0.0000000e+00 
-1.6163131e-02 2.2501390e-01 0.0000000e+00 
-2.2519836e-02 2.2395289e-01 0.0000000e+00 
-2.8881915e-02 2.2291472e-01 0.0000000e+00 
-3.5253194e-02 2.2189704e-01 0.0000000e+00 
-1.7448897e-02 2.3359496e-01 0.0000000e+00 
-2.3887020e-02 2.3250916e-01 0.0000000e+00 
-3.0330461e-02 2.3144418e-01 0.0000000e+00 
-3.6782876e-02 2.3040002e-01 0.0000000e+00 
-1.8775941e-02 2.4228556e-01 0.0000000e+00 
-2.5292107e-02 2.4117196e-01 0.0000000e+00 
-3.1813307e-02 2.4007954e-01 0.0000000e+00 
-3.8343524e-02 2.3900614e-01 0.0000000e+00 
-2.0142032e-02 2.5107306e-01 0.0000000e+00 
-2.6733410e-02 2.4993588e-01 0.0000000e+00 
-3.3330231e-02 2.4881823e-01 0.0000000e+00 
-3.9935873e-02 2.4771939e-01 0.0000000e+00 
-2.1546666e-02 2.5996027e-01 0.0000000e+00 
-2.8211249e-02 2.5879805e-01 0.0000000e+00 
-3.4880438e-02 2.5765496e-01 0.0000000e+00 
-4.1557744e-02 2.5653011e-01 0.0000000e+00 
-2.2989618e-02 2.6894324e-01 0.0000000e+00 
-2.9723672e-02 2.6775548e-01 0.0000000e+00 
-3.6462000e-02 2.6658674e-01 0.0000000e+00 
-4.3208748e-02 2.6543479e-01 0.0000000e+00 
-2.4468808e-02 2.7801169e-01 0.0000000e+00 
-3.1269697e-02 2.7680251e-01 0.0000000e+00 
-3.8074910e-02 2.7561044e-01 0.0000000e+00 
-4.4888300e-02 2.7443523e-01 0.0000000e+00 
-2.5984542e-02 2.8716962e-01 0.0000000e+00 
-3.2848990e-02 2.8593641e-01 0.0000000e+00 
-3.9717368e-02 2.8472072e-01 0.0000000e+00 
-4.6593757e-02 2.8352005e-01 0.0000000e+00 
-2.7534389e-02 2.9640487e-01 0.0000000e+00 
-3.4459648e-02 2.9515195e-01 0.0000000e+00 
-4.1388750e-02 2.9391456e-01 0.0000000e+00 
-4.8325565e-02 2.9269241e-01 0.0000000e+00 
-2.9118440e-02 3.0572118e-01 0.0000000e+00 
-3.6101143e-02 3.0444608e-01 0.0000000e+00 
-4.3087288e-02 3.0318690e-01 0.0000000e+00 
-5.0080957e-02 3.0194112e-01 0.0000000e+00 
-3.0734142e-02 3.1510666e-01 0.0000000e+00 
-3.7771539e-02 3.1381367e-01 0.0000000e+00 
-4.4812291e-02 3.1253463e-01 0.0000000e+00 
-5.1860255e-02 3.1126920e-01 0.0000000e+00 
-3.2381459e-02 3.2456484e-01 0.0000000e+00 
-3.9470222e-02 3.2325163e-01 0.0000000e+00 
-4.6561926e-02 3.2195274e-01 0.0000000e+00 
-5.3660629e-02 3.2066565e-01 0.0000000e+00 
-3.4057807e-02 3.3408411e-01 0.0000000e+00 
-4.1195192e-02 3.3275492e-01 0.0000000e+00 
-4.8335431e-02 3.3143813e-01 0.0000000e+00 
-5.5482345e-02 3.3013334e-01 0.0000000e+00 
-3.5763028e-02 3.4366781e-01 0.0000000e+00 
-4.2945762e-02 3.4232046e-01 0.0000000e+00 
-5.0130925e-02 3.4098585e-01 0.0000000e+00 
-5.7322529e-02 3.3966146e-01 0.0000000e+00 
-3.7494527e-02 3.5330465e-01 0.0000000e+00 
-4.4719888e-02 3.5194330e-01 0.0000000e+00 
-5.1947595e-02 3.5059281e-01 0.0000000e+00 
-5.9181409e-02 3.4925274e-01 0.0000000e+00 
-3.9252041e-02 3.6299778e-01 0.0000000e+00 
-4.6516829e-02 3.6162038e-01 0.0000000e+00 
-5.3783530e-02 3.6025415e-01 0.0000000e+00 
-6.1056087e-02 3.5889662e-01 0.0000000e+00 
-4.1032983e-02 3.7273627e-01 0.0000000e+00 
-4.8334517e-02 3.7134688e-01 0.0000000e+00 
-5.5637882e-02 3.6996686e-01 0.0000000e+00 
-6.2946753e-02 3.6859571e-01 0.0000000e+00 
-4.2837045e-02 3.8252309e-01 0.0000000e+00 
-5.0172160e-02 3.8111985e-01 0.0000000e+00 
-5.7508690e-02 3.7972613e-01 0.0000000e+00 
-6.4850562e-02 3.7833968e-01 0.0000000e+00 
-4.4661715e-02 3.9234761e-01 0.0000000e+00 
-5.2027580e-02 3.9093440e-01 0.0000000e+00 
-5.9395150e-02 3.8952921e-01 0.0000000e+00 
-6.6767743e-02 3.8813107e-01 0.0000000e+00 
-4.6505762e-02 4.0221144e-01 0.0000000e+00 
-5.3900346e-02 4.0078751e-01 0.0000000e+00 
-6.1295927e-02 3.9937121e-01 0.0000000e+00 
-6.8695791e-02 3.9796142e-01 0.0000000e+00 
-4.8368294e-02 4.1211095e-01 0.0000000e+00 
-5.5788329e-02 4.1067639e-01 0.0000000e+00 
-6.3208935e-02 4.0924924e-01 0.0000000e+00 
-7.0633922e-02 4.0782735e-01 0.0000000e+00 
-5.0247101e-02 4.2203771e-01 0.0000000e+00 
-5.7690082e-02 4.2059614e-01 0.0000000e+00 
-6.5133675e-02 4.1916037e-01 0.0000000e+00 
-7.2581327e-02 4.1772989e-01 0.0000000e+00 
-5.2141723e-02 4.3199436e-01 0.0000000e+00 
-5.9604848e-02 4.3054412e-01 0.0000000e+00 
-6.7068156e-02 4.2909992e-01 0.0000000e+00 
-7.4535241e-02 4.2765947e-01 0.0000000e+00 
-5.4049778e-02 4.4197120e-01 0.0000000e+00 
-6.1530569e-02 4.4051598e-01 0.0000000e+00 
-6.9011483e-02 4.3906517e-01 0.0000000e+00 
-7.6495836e-02 4.3761828e-01 0.0000000e+00 
-5.5970726e-02 4.5197078e-01 0.0000000e+00 
-6.3466412e-02 4.5050898e-01 0.0000000e+00 
-7.0961815e-02 4.4905181e-01 0.0000000e+00 
-7.8460373e-02 4.4759707e-01 0.0000000e+00 
-5.7902200e-02 4.6198379e-01 0.0000000e+00 
-6.5410414e-02 4.6051896e-01 0.0000000e+00 
-7.2918297e-02 4.5905721e-01 0.0000000e+00 
-8.0429012e-02 4.5759807e-01 0.0000000e+00 
-5.9843661e-02 4.7201272e-01 0.0000000e+00 
-6.7361767e-02 4.7054333e-01 0.0000000e+00 
-7.4879155e-02 4.6907724e-01 0.0000000e+00 
-8.2399089e-02 4.6761232e-01 0.0000000e+00 
-6.1792831e-02 4.8204867e-01 0.0000000e+00 
-6.9318577e-02 4.8057814e-01 0.0000000e+00 
-7.6843571e-02 4.7910940e-01 0.0000000e+00 
-8.4370802e-02 4.7764204e-01 0.0000000e+00 
-6.3749178e-02 4.9209409e-01 0.0000000e+00 
-7.1280074e-02 4.9062092e-01 0.0000000e+00 
-7.8809848e-02 4.8914977e-01 0.0000000e+00 
-8.6341579e-02 4.8767863e-01 0.0000000e+00 
-6.5710525e-02 5.0214049e-01 0.0000000e+00 
-7.3244445e-02 5.0066795e-01 0.0000000e+00 
-8.0777224e-02 4.9919601e-01 0.0000000e+00 
-8.8311667e-02 4.9772429e-01 0.0000000e+00 
-6.7676358e-02 5.1219029e-01 0.0000000e+00 
-7.5210971e-02 5.1071694e-01 0.0000000e+00 
-8.2744091e-02 5.0924440e-01 0.0000000e+00 
-9.0278598e-02 5.0777077e-01 0.0000000e+00 
-6.9644616e-02 5.2223544e-01 0.0000000e+00 
-7.7177931e-02 5.2076437e-01 0.0000000e+00 
-8.4709747e-02 5.1929277e-01 0.0000000e+00 
-9.2242667e-02 5.1782031e-01 0.0000000e+00 
-7.1614849e-02 5.3227832e-01 0.0000000e+00 
-7.9144658e-02 5.3080816e-01 0.0000000e+00 
-8.6672656e-02 5.2933762e-01 0.0000000e+00 
-9.4201564e-02 5.2786502e-01 0.0000000e+00 
-7.3585144e-02 5.4231127e-01 0.0000000e+00 
-8.1109460e-02 5.4084491e-01 0.0000000e+00 
-8.8632236e-02 5.3937709e-01 0.0000000e+00 
-9.6155682e-02 5.3790715e-01 0.0000000e+00 
-7.5554476e-02 5.5233577e-01 0.0000000e+00 
-8.3072004e-02 5.5087260e-01 0.0000000e+00 
-9.0587527e-02 5.4940772e-01 0.0000000e+00 
-9.8103122e-02 5.4794042e-01 0.0000000e+00 
-7.7522166e-02 5.6234948e-01 0.0000000e+00 
-8.5030754e-02 5.6088951e-01 0.0000000e+00 
-9.2537057e-02 5.5942771e-01 0.0000000e+00 
-1.0004348e-01 5.5796262e-01 0.0000000e+00 
-7.9486638e-02 5.7234667e-01 0.0000000e+00 
-8.6984722e-02 5.7089244e-01 0.0000000e+00 
-9.4480624e-02 5.6943528e-01 0.0000000e+00 
-1.0197644e-01 5.6797498e-01 0.0000000e+00 
-8.1447605e-02 5.8232971e-01 0.0000000e+00 
-8.8933478e-02 5.8087989e-01 0.0000000e+00 
-9.6416917e-02 5.7942737e-01 0.0000000e+00 
-1.0390003e-01 5.7797068e-01 0.0000000e+00 
-8.3403448e-02 5.9229207e-01 0.0000000e+00 
-9.0875669e-02 5.9084918e-01 0.0000000e+00 
-9.8345484e-02 5.8940250e-01 0.0000000e+00 
-1.0581477e-01 5.8795192e-01 0.0000000e+00 
-8.5353911e-02 6.0223616e-01 0.0000000e+00 
-9.2810875e-02 6.0079885e-01 0.0000000e+00 
-1.0026522e-01 5.9935803e-01 0.0000000e+00 
-1.0771881e-01 5.9791232e-01 0.0000000e+00 
-8.7297455e-02 6.1215585e-01 0.0000000e+00 
-9.4737900e-02 6.1072651e-01 0.0000000e+00 
-1.0217577e-01 6.0929262e-01 0.0000000e+00 
-1.0961272e-01 6.0785415e-01 0.0000000e+00 
-8.9233909e-02 6.2205363e-01 0.0000000e+00 
-9.6656409e-02 6.2063090e-01 0.0000000e+00 
-1.0407615e-01 6.1920391e-01 0.0000000e+00 
-1.1149476e-01 6.1777142e-01 0.0000000e+00 
-9.1161857e-02 6.3192377e-01 0.0000000e+00 
-9.8565331e-02 6.3050987e-01 0.0000000e+00 
-1.0596611e-01 6.2909077e-01 0.0000000e+00 
-1.1336560e-01 6.2766649e-01 0.0000000e+00 
-9.3081216e-02 6.4176884e-01 0.0000000e+00 
-1.0046442e-01 6.4036242e-01 0.0000000e+00 
-1.0784477e-01 6.3895110e-01 0.0000000e+00 
-1.1522364e-01 6.3753376e-01 0.0000000e+00 
-9.4990689e-02 6.5158352e-01 0.0000000e+00 
-1.0235272e-01 6.5018665e-01 0.0000000e+00 
-1.0971197e-01 6.4878400e-01 0.0000000e+00 
-1.1706963e-01 6.4737567e-01 0.0000000e+00 
-9.6890287e-02 6.6137047e-01 0.0000000e+00 
-1.0423009e-01 6.5998177e-01 0.0000000e+00 
-1.1156699e-01 6.5858762e-01 0.0000000e+00 
-1.1890210e-01 6.5718703e-01 0.0000000e+00 
-9.8778830e-02 6.7112477e-01 0.0000000e+00 
-1.0609569e-01 6.6974616e-01 0.0000000e+00 
-1.1340973e-01 6.6836130e-01 0.0000000e+00 
-1.2072189e-01 6.6697036e-01 0.0000000e+00 
-1.0065645e-01 6.8084917e-01 0.0000000e+00 
-1.0794946e-01 6.7947929e-01 0.0000000e+00 
-1.1523958e-01 6.7810344e-01 0.0000000e+00 
-1.2252770e-01 6.7672088e-01 0.0000000e+00 
-1.0252210e-01 6.9053911e-01 0.0000000e+00 
-1.0979064e-01 6.8917969e-01 0.0000000e+00 
-1.1705658e-01 6.8781373e-01 0.0000000e+00 
-1.2432045e-01 6.8644121e-01 0.0000000e+00 
-1.0437555e-01 7.0019677e-01 0.0000000e+00 
-1.1161948e-01 6.9884700e-01 0.0000000e+00 
-1.1886056e-01 6.9749072e-01 0.0000000e+00 
-1.2609922e-01 6.9612786e-01 0.0000000e+00 
-1.0621677e-01 7.0982157e-01 0.0000000e+00 
-1.1343530e-01 7.0848105e-01 0.0000000e+00 
-1.2065095e-01 7.0713414e-01 0.0000000e+00 
-1.2786426e-01 7.0578029e-01 0.0000000e+00 
-1.0804501e-01 7.1941044e-01 0.0000000e+00 
-1.1523794e-01 7.1808064e-01 0.0000000e+00 
-1.2242813e-01 7.1674387e-01 0.0000000e+00 
-1.2961597e-01 7.1540047e-01 0.0000000e+00 
-1.0986065e-01 7.2896638e-01 0.0000000e+00 
-1.1702755e-01 7.2764589e-01 0.0000000e+00 
-1.2419172e-01 7.2631885e-01 0.0000000e+00 
-1.3135339e-01 7.2498470e-01 0.0000000e+00 
-1.1166290e-01 7.3848575e-01 0.0000000e+00 
-1.1880373e-01 7.3717603e-01 0.0000000e+00 
-1.2594190e-01 7.3585920e-01 0.0000000e+00 
-1.3307759e-01 7.3453566e-01 0.0000000e+00 
-1.1345223e-01 7.4797168e-01 0.0000000e+00 
-1.2056667e-01 7.4667130e-01 0.0000000e+00 
-1.2767848e-01 7.4536424e-01 0.0000000e+00 
-1.3478768e-01 7.4405006e-01 0.0000000e+00 
-1.1522790e-01 7.5742085e-01 0.0000000e+00 
-1.2231608e-01 7.5613115e-01 0.0000000e+00 
-1.2940172e-01 7.5483427e-01 0.0000000e+00 
-1.3648478e-01 7.5353069e-01 0.0000000e+00 
-1.1699046e-01 7.6683652e-01 0.0000000e+00 
-1.2405223e-01 7.6555604e-01 0.0000000e+00 
-1.3111152e-01 7.6426886e-01 0.0000000e+00 
-1.3816811e-01 7.6297464e-01 0.0000000e+00 
-1.1873927e-01 7.7621567e-01 0.0000000e+00 
-1.2577493e-01 7.7494567e-01 0.0000000e+00 
-1.3280820e-01 7.7366852e-01 0.0000000e+00 
-1.3983882e-01 7.7238476e-01 0.0000000e+00 
-1.2047497e-01 7.8556169e-01 0.0000000e+00 
-1.2748453e-01 7.8430070e-01 0.0000000e+00 
-1.3449177e-01 7.8303305e-01 0.0000000e+00 
-1.4149627e-01 7.8175852e-01 0.0000000e+00 
-1.2219700e-01 7.9487187e-01 0.0000000e+00 
-1.2918091e-01 7.9362103e-01 0.0000000e+00 
-1.3616260e-01 7.9236315e-01 0.0000000e+00 
-1.4314163e-01 7.9109883e-01 0.0000000e+00 
-1.2390608e-01 8.0414972e-01 0.0000000e+00 
-1.3086450e-01 8.0290753e-01 0.0000000e+00 
-1.3782080e-01 8.0165885e-01 0.0000000e+00 
-1.4477435e-01 8.0040351e-01 0.0000000e+00 
-1.2560171e-01 8.1339278e-01 0.0000000e+00 
-1.3253527e-01 8.1216032e-01 0.0000000e+00 
-1.3946679e-01 8.1092103e-01 0.0000000e+00 
-1.4639565e-01 8.0967553e-01 0.0000000e+00 
-1.2728473e-01 8.2260469e-01 0.0000000e+00 
-1.3419369e-01 8.2138047e-01 0.0000000e+00 
-1.4110073e-01 8.2014994e-01 0.0000000e+00 
-1.4800508e-01 8.1891308e-01 0.0000000e+00 
-1.2895474e-01 8.3178322e-01 0.0000000e+00 
-1.3583976e-01 8.3056820e-01 0.0000000e+00 
-1.4272313e-01 8.2934668e-01 0.0000000e+00 
-1.4960390e-01 8.2811914e-01 0.0000000e+00 
-1.3061225e-01 8.4093157e-01 0.0000000e+00 
-1.3747424e-01 8.3972475e-01 0.0000000e+00 
-1.4433442e-01 8.3851171e-01 0.0000000e+00 
-1.5119192e-01 8.3729285e-01 0.0000000e+00 
-1.3225784e-01 8.5005060e-01 0.0000000e+00 
-1.3909711e-01 8.4885126e-01 0.0000000e+00 