/*--------------------------------*- C++ -*----------------------------------*\
  =========                 |
  \\      /  F ield         | OpenFOAM: The Open Source CFD Toolbox
   \\    /   O peration     | Website:  https://openfoam.org
    \\  /    A nd           | Version:  7
     \\/     M anipulation  |
\*---------------------------------------------------------------------------*/
FoamFile
{
    version     2.0;
    format      ascii;
    class       volVectorField;
    location    "1";
    object      cellDisplacement;
}
// * * * * * * * * * * * * * * * * * * * * * * * * * * * * * * * * * * * * * //

dimensions      [0 1 0 0 0 0 0];

internalField   nonuniform List<vector> 
7540
(
(-0.000308340748237 8.17017117708e-05 0)
(-0.000915267439453 0.000243486992855 0)
(-0.00150409284994 0.000402401355612 0)
(-0.00207724014614 0.000560020580884 0)
(-0.00263732346714 0.000717939658514 0)
(-0.00318707919218 0.000877795697059 0)
(-0.00372931100631 0.00104129043144 0)
(-0.00426689839062 0.00121007769307 0)
(-0.0048028390391 0.00138585207405 0)
(-0.00534026883923 0.00157037535025 0)
(-0.00588248193676 0.00176545291524 0)
(-0.00643296897139 0.00197291102383 0)
(-0.00699540391691 0.00219483595951 0)
(-0.00757363544212 0.00243340030797 0)
(-0.00817372224089 0.00269168203026 0)
(-0.00879965076047 0.00297262224395 0)
(-0.00945359255834 0.00327782733685 0)
(-0.0101400349119 0.00361000627146 0)
(-0.010863627605 0.00397199778069 0)
(-0.011629353729 0.0043659427084 0)
(-0.00030740790849 0.00024032689325 0)
(-0.000912126776692 0.000715801131599 0)
(-0.00149817005186 0.00118207622186 0)
(-0.00206815113779 0.00164385810734 0)
(-0.00262478082914 0.00210579752035 0)
(-0.00317087853727 0.00257265824078 0)
(-0.00370923528104 0.00304959569169 0)
(-0.00424266530908 0.00354130248107 0)
(-0.0047741360116 0.00405267561523 0)
(-0.00530675363086 0.00458887759437 0)
(-0.0058437549879 0.00515518919894 0)
(-0.00638865590931 0.00575653033433 0)
(-0.00694515194817 0.00639922141287 0)
(-0.00751706680654 0.0070896026885 0)
(-0.00811057329023 0.0078367190723 0)
(-0.00872967154107 0.00864870104052 0)
(-0.00937647900308 0.0095302189026 0)
(-0.0100555417591 0.0104892283186 0)
(-0.0107715650034 0.0115340218849 0)
(-0.0115296416946 0.0126710508245 0)
(-0.000305394988014 0.000388609463733 0)
(-0.000905401436499 0.00115643556867 0)
(-0.00148572945704 0.00190744883399 0)
(-0.00204938625432 0.00264967974697 0)
(-0.00259915921146 0.00339039450996 0)
(-0.00313816054066 0.00413683820125 0)
(-0.00366909438033 0.00489869656476 0)
(-0.00419451552093 0.00568243077687 0)
(-0.00471738738776 0.00649577540169 0)
(-0.00524080507363 0.00734721265649 0)
(-0.00576772569479 0.00824592757563 0)
(-0.00630185084615 0.00919688296234 0)
(-0.00684698891621 0.010212380942 0)
(-0.0074068275049 0.0113024417402 0)
(-0.00798768715189 0.0124810038418 0)
(-0.00859363960432 0.0137605761285 0)
(-0.00922678677802 0.0151486682795 0)
(-0.0098917689692 0.0166582056099 0)
(-0.0105933928094 0.0183025750677 0)
(-0.0113369483525 0.0200926707781 0)
(-0.000302706498102 0.000526090206293 0)
(-0.000895474397732 0.00156173228285 0)
(-0.00146673955955 0.00257108590211 0)
(-0.0020209924 0.0035673067765 0)
(-0.00256026357659 0.00455901995414 0)
(-0.00308882676841 0.00555890200275 0)
(-0.00360939335433 0.00657686076842 0)
(-0.00412319326266 0.00761983088598 0)
(-0.00463362180363 0.00869893656822 0)
(-0.00514419692912 0.00982570445809 0)
(-0.00565677442603 0.0110078526528 0)
(-0.00617521400134 0.0122568709919 0)
(-0.00670429312997 0.0135936758295 0)
(-0.00724681116727 0.0150290392151 0)
(-0.0078094071167 0.0165774503435 0)
(-0.00839640744779 0.0182570606349 0)
(-0.00900995144201 0.0200782079394 0)
(-0.00965478700645 0.022058662658 0)
(-0.0103358509383 0.0242166408949 0)
(-0.0110586895626 0.0265677511816 0)
(-0.000297014692036 0.000647177917306 0)
(-0.000879535602469 0.00192275286623 0)
(-0.00144086245271 0.00316567989816 0)
(-0.00198399852336 0.00438883964232 0)
(-0.00251167882379 0.00560459003367 0)
(-0.00302687175857 0.00682607255196 0)
(-0.00353237682079 0.0080632379661 0)
(-0.00403062972593 0.00932795834013 0)
(-0.00452447303836 0.0106325767694 0)
(-0.00501685172572 0.0119894025493 0)
(-0.0055104948204 0.0134095514563 0)
(-0.0060102456611 0.0149159620208 0)
(-0.00652032796501 0.0165249792858 0)
(-0.00704141109701 0.0182425469592 0)
(-0.00758027515944 0.0200938740236 0)
(-0.00814292830758 0.0221028086703 0)
(-0.00873145202987 0.0242808849581 0)
(-0.00935062569185 0.0266507839927 0)
(-0.0100055262208 0.0292351396115 0)
(-0.0107019978031 0.0320545940379 0)
(-0.000290786204173 0.000754884973245 0)
(-0.000860758129056 0.00224172628908 0)
(-0.00140910331969 0.00368751669721 0)
(-0.00193846549413 0.00510641892475 0)
(-0.00245148356937 0.00651229752521 0)
(-0.00295083937002 0.00791888295177 0)
(-0.00343919604681 0.00933939913104 0)
(-0.00391919968847 0.0107875212446 0)
(-0.0043936375989 0.0122774781372 0)
(-0.00486544370532 0.0138241924424 0)
(-0.00533772535771 0.0154437885845 0)
(-0.00581400134074 0.0171555308201 0)
(-0.00629813697711 0.0189731639164 0)
(-0.00679317972461 0.0209130169872 0)
(-0.00730472469129 0.0230081861707 0)
(-0.00783823417217 0.0252756659473 0)
(-0.00839693144296 0.0277323704423 0)
(-0.00898542215799 0.0304096802779 0)
(-0.00960903494543 0.0333326649467 0)
(-0.0102739253549 0.0365277455762 0)
(-0.000283605986002 0.000847991431417 0)
(-0.000838926183272 0.00251612047094 0)
(-0.00137198047574 0.00413400223539 0)
(-0.00188524408972 0.00571705394979 0)
(-0.00238120299922 0.00728033463125 0)
(-0.00286237341316 0.00883873064481 0)
(-0.00333130817665 0.0104070964322 0)
(-0.00379062355183 0.0120006114779 0)
(-0.00424305668922 0.0136350314841 0)
(-0.00469150390246 0.0153269245393 0)
(-0.00513906175274 0.0170939416043 0)
(-0.00558908221349 0.018954994262 0)
(-0.00604514592511 0.02092934186 0)
(-0.00651095841206 0.0230385209232 0)
(-0.00699069966663 0.0253081880836 0)
(-0.00748917148182 0.0277570573468 0)
(-0.00801235890188 0.0304193148795 0)
(-0.0085654971251 0.033324899243 0)
(-0.00915312810237 0.0364980449529 0)
(-0.00978151119884 0.0399764832386 0)
(-0.00027550453 0.000926038165047 0)
(-0.000814306724021 0.00274511879955 0)
(-0.00133017294958 0.00450437619533 0)
(-0.00182542018123 0.0062201745026 0)
(-0.00230237332471 0.00790845752528 0)
(-0.00276339342164 0.00958500174603 0)
(-0.00321090241765 0.0112656562083 0)
(-0.0036474145011 0.0129666208139 0)
(-0.0040755749392 0.0147047106847 0)
(-0.00449819728191 0.0164976080752 0)
(-0.00491829978833 0.0183641004868 0)
(-0.00533913926369 0.0203242704771 0)
(-0.00576422988271 0.0223996088542 0)
(-0.00619736599395 0.0246135540125 0)
(-0.00664271240052 0.0269917445375 0)
(-0.00710482841217 0.0295611031749 0)
(-0.00758854865612 0.032352994719 0)
(-0.00809954515845 0.0353950444065 0)
(-0.00864487447847 0.0387323049744 0)
(-0.00923182138072 0.0424041528182 0)
(-0.000266627994414 0.00098913469056 0)
(-0.000787369475716 0.00292918440681 0)
(-0.00128452823612 0.00479967995272 0)
(-0.00176024168339 0.00661754921479 0)
(-0.00221665416355 0.00839923592416 0)
(-0.00265595330088 0.0101610054846 0)
(-0.00308040253493 0.0119192285036 0)
(-0.0034923747474 0.0136906660017 0)
(-0.00389438761105 0.0154927495239 0)
(-0.00428913920236 0.01734385597 0)
(-0.00467954354576 0.0192635776243 0)
(-0.00506876559009 0.0212729868639 0)
(-0.00546025519409 0.0233949105694 0)
(-0.00585778595405 0.0256542712964 0)
(-0.00626550511835 0.028078364795 0)
(-0.00668797180249 0.030697041279 0)
(-0.00713018695907 0.0335432995768 0)
(-0.00759768022398 0.0366529024086 0)
(-0.0080963861765 0.0400670661432 0)
(-0.00863432911677 0.0438249416459 0)
(-0.000257194010335 0.00103789252134 0)
(-0.000758702902166 0.00306993073269 0)
(-0.00123602522988 0.00502270096669 0)
(-0.00169109739777 0.00691330795174 0)
(-0.00212585322551 0.0087582612918 0)
(-0.00254227813148 0.0105738765044 0)
(-0.00294244763141 0.0123765986862 0)
(-0.00332856234767 0.0141833079652 0)
(-0.00370298269261 0.0160116200054 0)
(-0.00406826412841 0.0178801882951 0)
(-0.00442719344202 0.0198090132237 0)
(-0.00478282644777 0.0218197632982 0)
(-0.00513852789971 0.0239361167704 0)
(-0.00549801537777 0.0261841312898 0)
(-0.00586540788347 0.0285926215988 0)
(-0.00624527581993 0.0311935510444 0)
(-0.00664269437984 0.0340224877653 0)
(-0.00706330668541 0.0371189849332 0)
(-0.00751337684412 0.0405271930906 0)
(-0.00800077470453 0.04429642324 0)
(-0.000247595287223 0.00107391102613 0)
(-0.000728981534014 0.0031700580376 0)
(-0.00118573996418 0.0051778723061 0)
(-0.00161949731907 0.00711387407615 0)
(-0.00203192220314 0.00899409524282 0)
(-0.00242476202821 0.0108344344038 0)
(-0.00279987489928 0.0126509688699 0)
(-0.00315926174319 0.014460264203 0)
(-0.00350509958843 0.0162796895969 0)
(-0.00383977650518 0.0181277453925 0)
(-0.00416592871105 0.0200244089896 0)
(-0.00448648047446 0.0219915058478 0)
(-0.00480468764481 0.0240531125003 0)
(-0.00512418579612 0.0262359968101 0)
(-0.00544904364247 0.0285700960084 0)
(-0.00578382183249 0.0310890367519 0)
(-0.00613363814142 0.0338307024906 0)
(-0.00650424013621 0.0368378290661 0)
(-0.00690208140204 0.0401586380155 0)
(-0.00733527213245 0.0438491942646 0)
(-0.000237759346513 0.0010971631412 0)
(-0.000698784008973 0.00323259278126 0)
(-0.00113478938868 0.00527101498712 0)
(-0.00154705102023 0.00722782219926 0)
(-0.00193694456096 0.00911812474462 0)
(-0.00230595514588 0.0109569859417 0)
(-0.00265570004333 0.0127597007283 0)
(-0.00298795726269 0.0145421016523 0)
(-0.00330469735892 0.0163208848788 0)
(-0.00360811801575 0.0181139594131 0)
(-0.00390068178217 0.0199408264563 0)
(-0.00418515767063 0.0218229972804 0)
(-0.00446466751048 0.0237844583771 0)
(-0.00474273804171 0.0258521919391 0)
(-0.00502335970643 0.0280567582229 0)
(-0.00531105308199 0.0304329454821 0)
(-0.00561094414495 0.0330204907544 0)
(-0.00592884968336 0.03586486934 0)
(-0.00627137177602 0.0390181430609 0)
(-0.00664684620525 0.0425423647929 0)
(-0.00022755957224 0.00110725434477 0)
(-0.000668749315755 0.00326140632263 0)
(-0.00108438434204 0.00530947679489 0)
(-0.00147547929539 0.00726582352337 0)
(-0.00184312988405 0.00914439410456 0)
(-0.00218854904569 0.0109590749045 0)
(-0.00251309624604 0.0127240008057 0)
(-0.00281830724777 0.0144538731914 0)
(-0.00310592574317 0.016164297342 0)
(-0.00337793778792 0.0178721496321 0)
(-0.00363660995137 0.0195959855901 0)
(-0.00388453217547 0.0213565007134 0)
(-0.00412466642368 0.023177056442 0)
(-0.00436040226887 0.0250842835341 0)
(-0.00459562060892 0.0271087740252 0)
(-0.00483476675825 0.0292858708965 0)
(-0.00508293433835 0.0316565611905 0)
(-0.00534596177323 0.034268474439 0)
(-0.0056305415245 0.0371769759077 0)
(-0.00594513248277 0.0404493542404 0)
(-0.000217730446893 0.00110783190564 0)
(-0.000639829131898 0.00326239379444 0)
(-0.00103589367641 0.00530235724659 0)
(-0.00140662155136 0.00724054642883 0)
(-0.00175280213578 0.00908936144854 0)
(-0.00207535687659 0.0108611498833 0)
(-0.0023753697312 0.0125685217987 0)
(-0.00265411653803 0.014224667758 0)
(-0.0029130957994 0.0158436983133 0)
(-0.00315406245729 0.0174410202844 0)
(-0.00337906595909 0.0190337649775 0)
(-0.00359049387196 0.020641284512 0)
(-0.00379112234742 0.0222857336411 0)
(-0.00398417478624 0.0239927551405 0)
(-0.00417339005983 0.0257922861917 0)
(-0.00436310158859 0.0277195002304 0)
(-0.00455832850306 0.0298158927117 0)
(-0.00476488023562 0.0321305109762 0)
(-0.00498947424005 0.0347213096385 0)
(-0.0052405716019 0.0376598415155 0)
(-0.000208721878942 0.00110175441772 0)
(-0.000612952481097 0.00324200307711 0)
(-0.000990732244162 0.00525990844663 0)
(-0.00134238611844 0.00716625193715 0)
(-0.0016683667422 0.0089714990727 0)
(-0.00196928402792 0.0106861168266 0)
(-0.0022459302399 0.0123208563416 0)
(-0.00249930602894 0.0138870496363 0)
(-0.00273064887448 0.0153969357996 0)
(-0.00294146525985 0.0168640326945 0)
(-0.00313356792664 0.0183035720973 0)
(-0.00330911964171 0.0197330189051 0)
(-0.00347068502477 0.0211726981465 0)
(-0.00362129208008 0.0226465563639 0)
(-0.00376450506677 0.0241830851317 0)
(-0.0039045100788 0.0258164316535 0)
(-0.00404621401774 0.0275877111716 0)
(-0.00419535650964 0.0295465155476 0)
(-0.00435863104781 0.0317525718854 0)
(-0.00454440447632 0.0342806336466 0)
(-0.000200787260274 0.00109113580095 0)
(-0.000588985455662 0.00320686367742 0)
(-0.00095031617863 0.00519313610386 0)
(-0.00128471283813 0.00705837117777 0)
(-0.00159227700206 0.00881081757849 0)
(-0.00187329544912 0.0104587933893 0)
(-0.00212825809077 0.0120109175789 0)
(-0.0023578794094 0.0134763697961 0)
(-0.00256312355685 0.014865188043 0)
(-0.00274523403211 0.0161886194522 0)
(-0.00290576929229 0.0174595442811 0)
(-0.00304664592303 0.0186929983226 0)
(-0.00317019125627 0.0199068250866 0)
(-0.00327920760695 0.0211224963135 0)
(-0.00337705051236 0.0223661462487 0)
(-0.00346772315216 0.0236698676983 0)
(-0.00355598786057 0.0250733077574 0)
(-0.00364749223341 0.0266255636168 0)
(-0.00374889878762 0.0283872846723 0)
(-0.00386846098611 0.0304355404904 0)
(-0.000194159189538 0.00107803323264 0)
(-0.000568780339269 0.00316384623121 0)
(-0.000916061245741 0.0051135637377 0)
(-0.00123555121336 0.00693309969698 0)
(-0.00152700385009 0.00862833608008 0)
(-0.00179038161053 0.0102052715094 0)
(-0.0020258683468 0.0116702012907 0)
(-0.00223388680713 0.0130299341666 0)
(-0.0024151200227 0.0142920484776 0)
(-0.00257053765395 0.0154652038906 0)
(-0.00270142895822 0.0165595313569 0)
(-0.00280944428484 0.0175871303272 0)
(-0.00289664738149 0.0185627116826 0)
(-0.00296558143156 0.0195044388163 0)
(-0.00301935273045 0.0204350381755 0)
(-0.00306173678528 0.0213832718964 0)
(-0.00309731151046 0.0223858781663 0)
(-0.00313161826542 0.0234900579966 0)
(-0.00317133583922 0.0247564356163 0)
(-0.00322474172742 0.0262641949009 0)
(-0.00018909612255 0.00106464865774 0)
(-0.000553203438787 0.00312005750367 0)
(-0.000889378750242 0.00503297061298 0)
(-0.00119683672625 0.00680694084685 0)
(-0.00147500257187 0.00844547644272 0)
(-0.00172352061919 0.00995218091566 0)
(-0.0019422706925 0.0113309233816 0)
(-0.00213138398806 0.0125860166206 0)
(-0.00229126015173 0.0137224184611 0)
(-0.00242258905561 0.0147459842687 0)
(-0.00252637979402 0.015663796643 0)
(-0.00260399896724 0.016484601595 0)
(-0.00265722064676 0.0172193912376 0)
(-0.00268829128008 0.0178821933967 0)
(-0.00270001525838 0.0184911632968 0)
(-0.00269587018814 0.0190701290563 0)
(-0.00268016633787 0.0196508276132 0)
(-0.00265827053211 0.0202761678962 0)
(-0.00263691070521 0.0210048668701 0)
(-0.00262471825716 0.0219187164634 0)
(-0.000185853545771 0.00105315852266 0)
(-0.000543168875141 0.00308288173398 0)
(-0.000871654171128 0.00496302789383 0)
(-0.00117045254385 0.0066961423798 0)
(-0.00143867037501 0.00828336310869 0)
(-0.00167563389741 0.00972585404694 0)
(-0.00188092332746 0.011025037031 0)
(-0.00205438512407 0.012182715968 0)
(-0.00219614063364 0.0132011946883 0)
(-0.00230660086032 0.014083447166 0)
(-0.00238649000113 0.0148333634067 0)
(-0.00243687893915 0.0154560907429 0)
(-0.00245923054235 0.0159584995552 0)
(-0.00245545807178 0.0163498220395 0)
(-0.00242800297547 0.0166425512765 0)
(-0.00237994200486 0.0168537679108 0)
(-0.00231514678116 0.017007233932 0)
(-0.0022385483229 0.0171369673148 0)
(-0.00215662435606 0.0172938076827 0)
(-0.00207842576112 0.0175585249649 0)
(-0.000184588043789 0.00104517197594 0)
(-0.000539305774748 0.00305804293998 0)
(-0.00086416140405 0.00491458051777 0)
(-0.00115816155093 0.00661595730497 0)
(-0.00142029344729 0.00816204005089 0)
(-0.00164953598295 0.00955141950594 0)
(-0.00184517905963 0.0107831472852 0)
(-0.0020068038806 0.0118566567666 0)
(-0.00213426946486 0.0127717222587 0)
(-0.0022277178429 0.0135285303479 0)
(-0.00228759193607 0.0141278356804 0)
(-0.00231466354488 0.014571195184 0)
(-0.00231007488441 0.0148612867193 0)
(-0.00227538492776 0.0150023244955 0)
(-0.00221262949649 0.0150005921148 0)
(-0.00212439130548 0.0148651369237 0)
(-0.00201388531242 0.0146087468241 0)
(-0.00188508236073 0.014249593217 0)
(-0.00174296949001 0.01381493538 0)
(-0.00159455241127 0.0133540348439 0)
(-0.0122384821365 0.00468834947128 0)
(-0.0126566666473 0.00491388238572 0)
(-0.0130877790716 0.00514829344426 0)
(-0.0135323233642 0.00539287990128 0)
(-0.0139909184589 0.00564801540346 0)
(-0.0144641804262 0.00591407168231 0)
(-0.0149527250504 0.00619141485773 0)
(-0.0154571650177 0.00648039917856 0)
(-0.015978106621 0.00678137153354 0)
(-0.0165161476708 0.00709467030984 0)
(-0.0170718752512 0.00742062408072 0)
(-0.0176458633417 0.00775954999181 0)
(-0.0182386703522 0.0081117515597 0)
(-0.0188508366708 0.00847751530151 0)
(-0.0194828824129 0.00885710507425 0)
(-0.020135305748 0.00925075202162 0)
(-0.020808582528 0.00965863625916 0)
(-0.0215031686304 0.0100808531498 0)
(-0.0222229144636 0.010519244772 0)
(-0.0229677371875 0.0109713844032 0)
(-0.0121329413725 0.0136014798967 0)
(-0.0125472198412 0.0142521361696 0)
(-0.0129744951795 0.0149286827659 0)
(-0.013415235149 0.0156346300146 0)
(-0.0138700783823 0.0163710937394 0)
(-0.0143396571721 0.0171391699768 0)
(-0.0148246043921 0.0179399379319 0)
(-0.0153255512783 0.0187744454777 0)
(-0.0158431238823 0.0196437217219 0)
(-0.0163779409482 0.0205487741619 0)
(-0.0169306115165 0.0214905858584 0)
(-0.0175017322103 0.0224701128365 0)
(-0.0180918840896 0.0234882818697 0)
(-0.0187016288448 0.024545988749 0)
(-0.0193315038765 0.0256440970136 0)
(-0.019982015392 0.0267834368603 0)
(-0.0206536278559 0.0279648033807 0)
(-0.0213467466352 0.0291889518793 0)
(-0.022065236638 0.0304623665309 0)
(-0.0228095149814 0.0317680963014 0)
(-0.0119293053171 0.0215577106004 0)
(-0.0123362261082 0.022581889642 0)
(-0.0127562615796 0.0236475737662 0)
(-0.013189830562 0.024759861037 0)
(-0.013637608399 0.0259206039225 0)
(-0.0141002643472 0.0271316039755 0)
(-0.0145784644616 0.0283946088293 0)
(-0.0150728752041 0.0297113451287 0)
(-0.0155841607718 0.0310835147531 0)
(-0.0161129809508 0.0325127890702 0)
(-0.0166599889071 0.0340008036362 0)
(-0.0172258289592 0.0355491537594 0)
(-0.0178111344357 0.037159391615 0)
(-0.018416525822 0.0388330260707 0)
(-0.019042609584 0.0405715272084 0)
(-0.0196899784055 0.0423763390414 0)
(-0.0203592142512 0.044248906698 0)
(-0.0210508970023 0.0461907294269 0)
(-0.0217656166261 0.0482034495327 0)
(-0.0225071582068 0.0502760010742 0)
(-0.0116354498992 0.0284931521638 0)
(-0.0120319040748 0.0298389279808 0)
(-0.0124416553427 0.0312406560455 0)
(-0.0128650581559 0.0327045391381 0)
(-0.0133028265128 0.034233149148 0)
(-0.0137556821293 0.0358289667757 0)
(-0.0142243418473 0.0374944159906 0)
(-0.0147095235464 0.0392319235143 0)
(-0.0152119461214 0.0410438886122 0)
(-0.0157323271899 0.0429326729084 0)
(-0.0162713806626 0.044900589901 0)
(-0.0168298141783 0.04694989401 0)
(-0.0174083264146 0.0490827689452 0)
(-0.0180076042799 0.0513013149499 0)
(-0.0186283199573 0.0536075339403 0)
(-0.0192711276785 0.0560033104557 0)
(-0.0199366598884 0.0584903841524 0)
(-0.0206255219848 0.0610703054755 0)
(-0.0213382743749 0.0637443626412 0)
(-0.0220790383042 0.0665142670825 0)
(-0.0112589271971 0.0343663130652 0)
(-0.0116420886593 0.0359822728974 0)
(-0.0120387663365 0.0376676732668 0)
(-0.0124492594516 0.0394294145042 0)
(-0.0128743290201 0.0412707784923 0)
(-0.0133147548158 0.0431949488847 0)
(-0.0137713194587 0.0452050990992 0)
(-0.014244808325 0.0473044175739 0)
(-0.0147360115918 0.0494960690798 0)
(-0.015245721869 0.0517831814305 0)
(-0.0157747314901 0.0541688307657 0)
(-0.0163238295184 0.0566560256248 0)
(-0.0168937984897 0.0592476899766 0)
(-0.0174854109048 0.0619466453705 0)
(-0.0180994254664 0.0647555924135 0)
(-0.0187365830506 0.067677091958 0)
(-0.0193976023958 0.0707135468503 0)
(-0.0200831755406 0.0738671866405 0)
(-0.0207939509244 0.0771400821245 0)
(-0.0215344173911 0.0805372965419 0)
(-0.0108071064123 0.0391522325005 0)
(-0.0111743696474 0.04098762286 0)
(-0.0115553847376 0.042905125439 0)
(-0.0119504010444 0.044911970244 0)
(-0.0123602433528 0.0470122065548 0)
(-0.0127857632691 0.0492098222855 0)
(-0.0132278208371 0.0515088232293 0)
(-0.0136872839287 0.0539132502771 0)
(-0.0141650309291 0.0564271384303 0)
(-0.0146619478392 0.0590544990959 0)
(-0.0151789250582 0.0617993000775 0)
(-0.015716853853 0.0646654437397 0)
(-0.0162766225148 0.0676567437207 0)
(-0.0168591122108 0.0707769005676 0)
(-0.0174651925497 0.0740294767527 0)
(-0.0180957169004 0.0774178716842 0)
(-0.0187515175299 0.080945297547 0)
(-0.0194334006822 0.0846147575731 0)
(-0.0201421253772 0.0884290620284 0)
(-0.0208825710666 0.0923969253753 0)
(-0.0102872670884 0.0428407268442 0)
(-0.0106361883221 0.0448453939018 0)
(-0.0109990941983 0.0469441110159 0)
(-0.0113761940588 0.0491442005865 0)
(-0.0117683837172 0.0514505524522 0)
(-0.0121766001201 0.0538680465118 0)
(-0.0126017966283 0.0564016234793 0)
(-0.0130449411424 0.059056300819 0)
(-0.0135070193772 0.0618371281912 0)
(-0.0139890313123 0.0647491617151 0)
(-0.0144919874217 0.0677974358959 0)
(-0.015016904577 0.0709869334978 0)
(-0.015564801557 0.0743225534055 0)
(-0.0161366941259 0.077809076561 0)
(-0.0167335896783 0.0814511302153 0)
(-0.0173564814817 0.0852531509571 0)
(-0.0180063425927 0.0892193472679 0)
(-0.018684119605 0.0933536632648 0)
(-0.0193907045382 0.0976597806452 0)
(-0.0201313939589 0.102150695189 0)
(-0.00970673591985 0.0454349284772 0)
(-0.010034984139 0.0475592004821 0)
(-0.0103774389709 0.0497888891189 0)
(-0.0107342766416 0.0521312046659 0)
(-0.011106431624 0.0545918821431 0)
(-0.0114949544369 0.0571767192809 0)
(-0.0119009147711 0.0598917292837 0)
(-0.0123254032215 0.0627430862115 0)
(-0.0127695354372 0.0657370568269 0)
(-0.0132344488187 0.0688799606216 0)
(-0.0137212988099 0.0721781319734 0)
(-0.0142312545923 0.0756378810606 0)
(-0.0147654941189 0.079265451806 0)
(-0.0153251983977 0.083066976017 0)
(-0.0159115449689 0.087048423311 0)
(-0.0165257005685 0.0912155468025 0)
(-0.0171688130225 0.0955738249892 0)
(-0.0178420025542 0.100128401525 0)
(-0.0185463239798 0.10488404741 0)
(-0.0192875155279 0.109858593409 0)
(-0.00907330135283 0.0469487295393 0)
(-0.0093783711336 0.049144875764 0)
(-0.0096981219403 0.0514556631835 0)
(-0.0100325761331 0.0538902094154 0)
(-0.0103821954248 0.0564546771716 0)
(-0.0107485440098 0.0591549338186 0)
(-0.0111327786275 0.0619987147727 0)
(-0.0115361411134 0.0649937090474 0)
(-0.0119598980563 0.0681476956782 0)
(-0.0124053475413 0.0714685432604 0)
(-0.0128738162468 0.0749641816774 0)
(-0.0133666552638 0.0786425630108 0)
(-0.0138852351233 0.082511613479 0)
(-0.0144309395452 0.0865791771395 0)
(-0.0150051576839 0.090852950295 0)
(-0.0156092747493 0.0953404053632 0)
(-0.0162446608973 0.100048703069 0)
(-0.016912658422 0.104984592776 0)
(-0.0176145304056 0.110154293336 0)
(-0.0183564861367 0.115580993028 0)
(-0.00839891274323 0.0474331225092 0)
(-0.00867573432533 0.0496361679363 0)
(-0.00896807208069 0.0519691878896 0)
(-0.00927774681193 0.0544517636664 0)
(-0.00960361501274 0.0570737420546 0)
(-0.00994535248913 0.0598345766868 0)
(-0.0103051104246 0.0627534625944 0)
(-0.0106846829743 0.0658384531466 0)
(-0.0110854155992 0.0690989702039 0)
(-0.0115087869316 0.0725446658271 0)
(-0.0119563210452 0.0761853770416 0)
(-0.0124295815087 0.0800310613288 0)
(-0.0129301690304 0.0840917380556 0)
(-0.0134597159362 0.0883774278024 0)
(-0.0140198778564 0.0928980775504 0)
(-0.0146123228473 0.0976634678237 0)
(-0.0152387175519 0.10268309726 0)
(-0.0159007093647 0.107966034952 0)
(-0.0165998555574 0.113520659002 0)
(-0.0173428919732 0.119376187423 0)
(-0.00769173400724 0.0469373991503 0)
(-0.00794037800847 0.0491136898998 0)
(-0.00820313526746 0.0514202207102 0)
(-0.00848073309311 0.0538644584399 0)
(-0.0087760167275 0.0564657322016 0)
(-0.00909125454106 0.0592464214119 0)
(-0.00942558891887 0.0621968164834 0)
(-0.00977891141205 0.0653171292362 0)
(-0.0101536685813 0.0686297765134 0)
(-0.0105520405814 0.0721461482359 0)
(-0.0109757401346 0.0758784705278 0)
(-0.0114265559273 0.0798391256116 0)
(-0.0119063550536 0.0840406787779 0)
(-0.0124170701113 0.0884958640403 0)
(-0.012960689767 0.0932175218637 0)
(-0.0135392496391 0.0982185197456 0)
(-0.0141548247239 0.103511680824 0)
(-0.014809525604 0.109109744459 0)
(-0.0155054455145 0.115025263393 0)
(-0.0162502218799 0.121296775943 0)
(-0.00695861873363 0.0455113233062 0)
(-0.00717713172419 0.0476105167713 0)
(-0.00740954109583 0.0498454852159 0)
(-0.00765637799181 0.052224751481 0)
(-0.00791905259691 0.054759846179 0)
(-0.00819942988945 0.0574629045217 0)
(-0.00850069939004 0.0603577617841 0)
(-0.0088253624861 0.0634700747749 0)
(-0.0091727827171 0.0667906906615 0)
(-0.00954299385303 0.0703203027303 0)
(-0.00993963834405 0.0740886421017 0)
(-0.0103646779139 0.0781098192619 0)
(-0.0108202990128 0.082399131776 0)
(-0.0113087938273 0.0869725244106 0)
(-0.0118325401199 0.0918463040397 0)
(-0.0123939873571 0.0970369333279 0)
(-0.0129956447086 0.10256087423 0)
(-0.0136400682806 0.108434448454 0)
(-0.0143297785558 0.114673477472 0)
(-0.0150729361965 0.121322782815 0)
(-0.00620937376114 0.0432287903708 0)
(-0.00639571355944 0.0452021800137 0)
(-0.00659544953802 0.0473146843353 0)
(-0.00680924750792 0.0495757446868 0)
(-0.00703868680587 0.0519987027902 0)
(-0.00728546661823 0.0545978617099 0)
(-0.00755135991718 0.0573885119645 0)
(-0.00783871862334 0.0603877744693 0)
(-0.00815133297983 0.063626296698 0)
(-0.00849070246908 0.0671199961315 0)
(-0.00885722020087 0.0708721084963 0)
(-0.00925252825051 0.0748978022191 0)
(-0.00967986822004 0.0792186749279 0)
(-0.0101419841834 0.0838556001745 0)
(-0.0106417157349 0.0888295849951 0)
(-0.0111820005228 0.0941616848601 0)
(-0.0117658632062 0.0998729055574 0)
(-0.0123964010398 0.105984041243 0)
(-0.0130766834605 0.112515120033 0)
(-0.0138154287213 0.119517250097 0)
(-0.00545482157059 0.0401812525535 0)
(-0.00560718330681 0.0419810320329 0)
(-0.00577217260674 0.0439203773238 0)
(-0.00595058794577 0.0460097805122 0)
(-0.00614407647174 0.048264153333 0)
(-0.00635441728332 0.050699567655 0)
(-0.00658353340255 0.0533332937122 0)
(-0.00683349766783 0.0561837416947 0)
(-0.00710645160509 0.0592700811043 0)
(-0.00740665408671 0.0626299572939 0)
(-0.0077380903376 0.0663017808097 0)
(-0.00810088992717 0.070280893355 0)
(-0.00849482004656 0.0745668014301 0)
(-0.00892552743451 0.0792058258596 0)
(-0.00939625722245 0.0842234478911 0)
(-0.00991047474054 0.0896459218248 0)
(-0.0104718264513 0.0954999320026 0)
(-0.0110841061761 0.101812224413 0)
(-0.011751138206 0.108608807243 0)
(-0.0124822656055 0.11594721961 0)
(-0.00470684366178 0.0364790604365 0)
(-0.00482386442933 0.0380596403935 0)
(-0.00495249409367 0.0397770910522 0)
(-0.00509365727521 0.0416431859256 0)
(-0.00524903479272 0.0436744155927 0)
(-0.0054204618774 0.0458888229313 0)
(-0.00560995139033 0.0483061752482 0)
(-0.00581971398707 0.0509481128852 0)
(-0.00605217021595 0.053838247782 0)
(-0.00630995293738 0.0570021590078 0)
(-0.00659648525552 0.0604693791695 0)
(-0.00691824608155 0.06430336493 0)
(-0.0072761720414 0.0685126339158 0)
(-0.00767028895142 0.0730913021056 0)
(-0.00810637235029 0.0780927680151 0)
(-0.00858866832616 0.0835508333383 0)
(-0.009121680272 0.0895003060719 0)
(-0.00971013543588 0.0959763250164 0)
(-0.0103588551348 0.103013163653 0)
(-0.0110776965239 0.110672967476 0)
(-0.00397814278587 0.0322514771043 0)
(-0.00405909021426 0.0335708281678 0)
(-0.00415042892032 0.0350209458246 0)
(-0.00425317394142 0.0366148313695 0)
(-0.00436897139782 0.0383701396028 0)
(-0.00449964027659 0.0403064892303 0)
(-0.00464721280115 0.0424458091322 0)
(-0.00481397370954 0.0448126586197 0)
(-0.00500249954852 0.0474345103438 0)
(-0.00521569668315 0.0503419650843 0)
(-0.00545683132274 0.0535688495027 0)
(-0.00572946354487 0.057151832211 0)
(-0.00604013305617 0.0611533467272 0)
(-0.0063919763238 0.0656067694005 0)
(-0.0067862538895 0.0705225749929 0)
(-0.00722913733354 0.0759517414758 0)
(-0.00772630101442 0.0819418421579 0)
(-0.00828375560722 0.0885408161824 0)
(-0.00890780104861 0.0957963221491 0)
(-0.00960776252662 0.103765645091 0)
(-0.00328176956908 0.0276458137621 0)
(-0.003326749137 0.0286675849162 0)
(-0.00338085336889 0.0298110694027 0)
(-0.00344510255949 0.0310899614669 0)
(-0.00352097641951 0.0325220232768 0)
(-0.00361012668998 0.0341273222361 0)
(-0.00371444609131 0.0359289042122 0)
(-0.00383613379818 0.0379534209896 0)
(-0.00397775657895 0.0402316757289 0)
(-0.00414230385427 0.0427990401241 0)
(-0.0043332361646 0.0456957070514 0)
(-0.00455452197305 0.048966713522 0)
(-0.00481063797242 0.0526614766324 0)
(-0.00510991084995 0.0568741954102 0)
(-0.00545504743287 0.0616303967316 0)
(-0.00584839837187 0.0669413598984 0)
(-0.00629943460763 0.0728978761585 0)
(-0.00681559450492 0.0795634698353 0)
(-0.00740602587495 0.0870198605197 0)
(-0.00807991370167 0.0953075476895 0)
(-0.00263012923275 0.0228224490925 0)
(-0.00264026018015 0.0235184972835 0)
(-0.00265861594166 0.0243269816721 0)
(-0.00268603134661 0.0252606819883 0)
(-0.00272356063309 0.0263350583832 0)
(-0.00277241324325 0.0275681328468 0)
(-0.00283407733109 0.0289818082512 0)
(-0.00291042479172 0.0306030507881 0)
(-0.00300380241415 0.0324649292512 0)
(-0.00311710640572 0.0346074119375 0)
(-0.0032538319048 0.0370777421566 0)
(-0.00341811854527 0.0399305183665 0)
(-0.00361477942799 0.0432273540313 0)
(-0.00385055543221 0.0470552041627 0)
(-0.00413434716349 0.0515156720376 0)
(-0.00446867842205 0.056629106254 0)
(-0.00486099824837 0.0624635102828 0)
(-0.00532279040094 0.0691412078987 0)
(-0.00586517627134 0.0767511572971 0)
(-0.00649904868292 0.085329487163 0)
(-0.00203267196203 0.0179381230238 0)
(-0.00201008531758 0.0182902853576 0)
(-0.00199636455383 0.0187550311561 0)
(-0.00199148636501 0.0193382061396 0)
(-0.00199544992169 0.0200468879702 0)
(-0.002008508241 0.0208917957956 0)
(-0.00203132392888 0.0218891988579 0)
(-0.00206509355336 0.0230627187996 0)
(-0.00211168322687 0.0244453751001 0)
(-0.00217376090265 0.0260816221561 0)
(-0.00225473185201 0.0280271112507 0)
(-0.00235869679243 0.0303480713576 0)
(-0.00249058982689 0.0331220768145 0)
(-0.00265638628924 0.0364390017706 0)
(-0.00286499443533 0.0404232424356 0)
(-0.00312504904576 0.045182584441 0)