/*--------------------------------*- C++ -*----------------------------------*\
  =========                 |
  \\      /  F ield         | OpenFOAM: The Open Source CFD Toolbox
   \\    /   O peration     | Website:  https://openfoam.org
    \\  /    A nd           | Version:  7
     \\/     M anipulation  |
\*---------------------------------------------------------------------------*/
FoamFile
{
    version     2.0;
    format      ascii;
    class       volScalarField;
    location    "1";
    object      Co;
}
// * * * * * * * * * * * * * * * * * * * * * * * * * * * * * * * * * * * * * //

dimensions      [0 0 0 0 0 0 0];

internalField   nonuniform List<scalar> 
7540
(
1.28730715397
1.28749541512
1.28809997921
1.28915670407
1.29066005247
1.29260719462
1.29499622446
1.29782603626
1.30109637974
1.30480643343
1.30895379779
1.31353426937
1.31853916243
1.32396750728
1.32980954995
1.33601918375
1.34254955531
1.34935780212
1.35638551034
1.36264417242
1.28908054425
1.28959105741
1.29051856353
1.29191206719
1.29376918679
1.29609034847
1.29887273742
1.302113989
1.30581558336
1.30997699405
1.31459380693
1.31966482855
1.325181673
1.33114251553
1.3375397652
1.34431508363
1.3514098927
1.35877435578
1.36633297782
1.3725649245
1.29076019392
1.29163521514
1.29291429784
1.2946739809
1.29691247879
1.2996335764
1.30283016752
1.30650285789
1.31066021548
1.31530002148
1.32041946177
1.32602957708
1.33211867345
1.33867424566
1.34569122685
1.35310570015
1.36085063612
1.3688696256
1.37707785795
1.38351652137
1.29230159347
1.2935283332
1.29514685411
1.29725685327
1.29986307134
1.30297132864
1.30657266157
1.31067604532
1.31529680165
1.32043164328
1.32609107323
1.33229853102
1.33902096064
1.34623451646
1.35395085601
1.36210437672
1.37061612669
1.37942576687
1.3884365719
1.39527265723
1.29367419051
1.29525518857
1.2972193946
1.2996844477
1.30266016615
1.3061542889
1.31016979714
1.31472371241
1.31983315053
1.32550336736
1.33175822055
1.33861558551
1.34602499953
1.35397524969
1.36248659761
1.37147961859
1.38088112062
1.39062949509
1.40061074159
1.40811222314
1.29488275483
1.29681931879
1.29912845495
1.30194527583
1.30528385357
1.30915963168
1.31359125631
1.31860245804
1.3242154683
1.33044912202
1.33732846006
1.34486105867
1.35301432523
1.36179605788
1.37119743312
1.38113893567
1.39157345405
1.40241797848
1.41354822418
1.42196702276
1.29593176169
1.29821885672
1.30086433576
1.30402385298
1.30771808473
1.31197314897
1.31681932322
1.3222895143
1.32841638448
1.33523019105
1.34275731767
1.35101013371
1.35998474031
1.36968568062
1.38008057136
1.39111680879
1.40274255329
1.41485249056
1.42733768091
1.43697197031
1.2968139463
1.29944497476
1.3024157216
1.30590429585
1.30994046511
1.31456141629
1.3198096398
1.32573044984
1.3323692846
1.33976893582
1.34796636568
1.35698825473
1.36684839382
1.37754750538
1.38905969539
1.40134525364
1.41433087264
1.42791584331
1.44198530991
1.45314284302
1.29752885992
1.30049112853
1.30376940257
1.30756483676
1.31191816631
1.31687930873
1.32250494889
1.32885564698
1.33599286551
1.34397584391
1.3528580965
1.3626834091
1.37348180435
1.38526526812
1.39802181888
1.41171247067
1.42626207595
1.4415674251
1.4574910584
1.47055324874
1.29808084223
1.30135131611
1.30491034948
1.30897920476
1.31361166884
1.31887245179
1.32483481094
1.3315775496
1.33918177397
1.34772746831
1.35728975124
1.36793453058
1.37971345561
1.39265817253
1.40677393286
1.42203304479
1.43836863321
1.45566638337
1.47377805352
1.4891851286
1.29847665652
1.30202108995
1.30582224787
1.31011687146
1.31497414589
1.32047557714
1.32671337745
1.33378768229
1.34180305433
1.35086485328
1.36107545224
1.37252954196
1.38530817275
1.39947167862
1.41505161704
1.43204168153
1.45038887329
1.46997998382
1.49066081474
1.50892324262
1.29872145812
1.30249969931
1.30648797089
1.31094337894
1.31595167361
1.32161237271
1.32803881562
1.33535562387
1.34369451245
1.35319089739
1.36398071681
1.3761955411
1.38995576054
1.40536220567
1.42248603256
1.4413564944
1.46194773258
1.4841593575
1.50783417718
1.52955475696
1.2988238964
1.30278559394
1.30688796976
1.31142057258
1.31648457107
1.32219768828
1.32869581207
1.33613120035
1.34466581223
1.35446961881
1.36571894361
1.37859152419
1.39325922091
1.40987877502
1.42857964685
1.44944801525
1.47250732655
1.4976903093
1.52484914991
1.55073444232
1.29880493644
1.30287324179
1.30700243593
1.31150953612
1.31650970279
1.32213982605
1.32855962949
1.33595051901
1.34450512077
1.3544319346
1.36595460222
1.37930703176
1.39472671303
1.412445771
1.43267742296
1.4555962574
1.48131104205
1.50982542166
1.54102887376
1.57191990903
1.29866166928
1.30275559658
1.30681706657
1.31117550119
1.3159705877
1.32134611188
1.32750212653
1.33464106113
1.34298408609
1.35278149303
1.36430895063
1.37786519263
1.39376819475
1.41234864189
1.43393673321
1.45883994935
1.48730727379
1.51947832905
1.5553460321
1.59228966022
1.29844939457
1.30245594254
1.3063003887
1.31035610006
1.31476779769
1.31971902126
1.32540482395
1.33203601952
1.33987383173
1.34921057597
1.36037406904
1.37373247044
1.38969685879
1.40872069019
1.43129131177
1.45791071811
1.48905241964
1.52509843292
1.56624615352
1.61046115091
1.2981623126
1.30194683784
1.30545919881
1.30906750787
1.31292988097
1.31722977489
1.32216235616
1.32798365339
1.3349688052
1.34343602498
1.35375675129
1.36636574588
1.38177261569
1.40057226669
1.42344806534
1.45117223781
1.48456911827
1.52448022177
1.57152729983
1.62457871421
1.29783074221
1.30126643166
1.30429203055
1.30728423287
1.31039897477
1.31381876032
1.31775289353
1.32244276671
1.32817417054
1.33528158488
1.34416444321
1.35530882925
1.36930977483
1.38690052833
1.40897862983
1.43664893981
1.47119597608
1.51422241164
1.56722317195
1.63143815876
1.29748392335
1.30043750795
1.30283368776
1.30505267278
1.3072376719
1.3095594291
1.3122169993
1.31543949751
1.31949644479
1.32470956728
1.33147304727
1.3402823168
1.3517740083
1.36678081996
1.38639309594
1.4120677113
1.44561136626
1.48952986442
1.54606354774
1.62038778155
1.29711753169
1.29945313792
1.30107987848
1.30236885109
1.30345255625
1.30447821321
1.3056172414
1.30706519319
1.30904817748
1.31183764019
1.3157719562
1.32128912606
1.32897598761
1.33964305326
1.35443059455
1.37499642776
1.40368883227
1.44419027064
1.50074261724
1.58010908387
2.73629537932
2.74011715628
2.74725685933
2.75439067953
2.76149561692
2.76853578005
2.77548078104
2.78230608437
2.78898654306
2.79549645557
2.80180968421
2.80789980441
2.8137402412
2.81930438086
2.82456567458
2.82949764782
2.83407381593
2.83834256986
2.84225779115
2.8423952891
2.74898473678
2.75213094732
2.75959808448
2.76704619302
2.77445252702
2.78177812471
2.78898981662
2.79606260998
2.80297051509
2.80968686507
2.81618465411
2.82243679307
2.82841634777
2.83409679995
2.83945236293
2.84445830726
2.84909143894
2.85340094193
2.8573175197
2.85631815166
2.76367899448
2.766350351
2.77423868991
2.78209021506
2.78987941741
2.7975750027
2.80514506592
2.8125615313
2.81979575245
2.82681859715
2.83360058646
2.84011212626
2.84632373236
2.85220621953
2.85773087843
2.86286960676
2.86759506026
2.87190674229
2.87575244059
2.87358186273
2.77977866911
2.78236443087
2.7909174199
2.79940392192
2.80779886193
2.81608406277
2.82423576033
2.83222211498
2.84001055323
2.84756812985
2.85486183311
2.86185877596
2.86852638156
2.87483261054
2.88074622599
2.88623706672
2.89127644257
2.89583726081
2.89993235735
2.89700267353
2.79792184544
2.80069526798
2.81005166502
2.81933551079
2.82850378793
2.83755304684
2.8464630816
2.85519676853
2.86371675982
2.87198551797
2.87996539565
2.88761881896
2.89490847092
2.90179744738
2.90824939937
2.91422861102
2.91970010251
2.92462923749
2.92905879192
2.9254026373
2.81772356096
2.82100624246
2.83141024636
2.84171613471
2.85190000085
2.8619608634
2.87187704891
2.88160654299
2.89110659861
2.90033407039
2.90924571513
2.91779843286
2.92594947068
2.93365663845
2.94087855379
2.9475748639
2.95370663333
2.95923629274
2.96422680491
2.96010091211
2.83942577648
2.84357384571
2.85525832691
2.86683287908
2.87828400065
2.88961303047
2.90079466753
2.91177998681
2.92251956851
2.93296355594
2.94306188576
2.95276459657
2.96202208284
2.970785301
2.97900598765
2.98663682415
2.99363176706
2.99994565756
3.00565832979
3.00119774135
2.86285077804
2.86826544619
2.88150993545
2.89464090935
2.90765907507
2.92056021131
2.93331499494
2.94586652413
2.95815716611
2.97012873949
2.98172287055
2.99288133376
3.00354628818
3.01366047679
3.02316745086
3.03201172709
3.0401391824
3.04749645331
3.05418391956
3.04962378953
2.887988323
2.89512928121
2.91021503253
2.92526033584
2.94017430503
2.95498561113
2.96967277132
2.98415132304
2.99835366414
3.01221204786
3.02565836836
3.03862470621
3.0510435964
3.06284818581
3.07397233545
3.08435059079
3.0939184001
3.10261079495
3.11054632142
3.10610249331
2.91463079339
2.92398768713
2.9412023342
2.95857253218
2.97583636115
2.99300578543
3.01001860065
3.0268243796
3.04336327467
3.05953359031
3.0752545147
3.09044695538
3.10503290865
3.1189354297
3.13207844939
3.1443864535
3.15578454462
3.16619639309
3.17576165638
3.17175638066
2.94245788405
2.95456603808
2.97432749741
2.99442361632
3.01452755496
3.03459578362
3.0544929947
3.07416371755
3.09350851066
3.11246368789
3.13095725622
3.14886638851
3.16610379616
3.18258293469
3.19821845641
3.21292556328
3.22661967265
3.23921306084
3.25086604658
3.24768075584
2.97093664432
2.98645978433
3.0093570997
3.03262979506
3.05603490661
3.07952003262
3.10296128405
3.12619308901
3.14901017201
3.17136405792
3.19319418022
3.21437354673
3.23481634407
3.2544234673
3.27310289384
3.29076394098
3.30731602261
3.32266289554
3.33698343777
3.33514567836
2.99921591101
3.01895197793
3.0457180499
3.0728173727
3.10025369436
3.12782325218
3.15540684248
3.18284331204
3.20994376351
3.23654646763
3.26245320317
3.28751314062
3.3117455783
3.3351004689
3.35744698075
3.37870137455
3.39877646303
3.41757306555
3.43528221405
3.43546961774
3.0260837243
3.05093899758
3.08236857953
3.11426685335
3.14678714057
3.17940876129
3.21202272423
3.24444958353
3.27656161132
3.30820184898
3.33911354195
3.36898505555
3.39775701096
3.42553253231
3.45224971066
3.47781802767
3.50218005817
3.52525970431
3.54725887775
3.550346724
3.04987874918
3.08103121501
3.11825505328
3.15626385729
3.1950724441
3.23406712862
3.2730546538
3.31172998263
3.34986057786
3.38727990513
3.42389515801
3.45945486025
3.4936086354
3.52638279678
3.55794119841
3.58831730962
3.61754379998
3.64566277769
3.67295453844
3.6802321703
3.06786975919
3.10690388725
3.15161776949
3.19765254394
3.2446997533
3.29210775811
3.33943325852
3.38617336102
3.43185432422
3.47606806643
3.51863557957
3.55956880487
3.59884994977
3.63642124141
3.67254246908
3.70780662166
3.74257216778
3.77695871903
3.8111219778
3.82425159097
3.07670885581
3.12570133187
3.18027757187
3.23689005114
3.29489567545
3.35323491943
3.41093452104
3.46707031802
3.52087144595
3.57188180144
3.6201269057
3.66612777365
3.71058217981
3.75375098669
3.79565019684
3.83714065487
3.87918386827
3.92211284851
3.96666225951
3.99077249068
3.07069921615
3.13221883367
3.19924166258
3.26940839562
3.34166709503
3.41403345552
3.48439998436
3.550923464
3.61279910327
3.67085677289
3.72655249226
3.78115043993
3.8345218918
3.88606552465
3.93469753486
3.98046097134
4.02465061219
4.06791808005
4.11306672897
4.14046456541
3.02713938327
3.10422716704
3.18913483111
3.28010763715
3.37470263999
3.46988051472
3.56311557461
3.65322012279
3.73971713498
3.82031708027
3.88930415257
3.94323077269
3.98357882815
4.01437060469
4.04186436285
4.07125834088
4.10284405979
4.13288626486
4.15651333526
4.15311675587
2.9318518736
3.02175781615
3.1329091916
3.25986526187
3.39486698336
3.53308420651
3.67198608819
3.80742116075
3.92842257577
4.01653226594
4.05648204306
4.04372183777
3.98006490378
3.86962895151
3.71844096588
3.52852010421
3.30000624197
3.03789154643
2.75741721325
2.46145025095
5.70368709541
5.69414598162
5.69660837274
5.69888836182
5.70102644628
5.70302924544
5.70485497702
5.70647733465
5.70787581941
5.70901660328
5.70969558922
5.70982628668
5.7096904862
5.70935429517
5.7087010484
5.70770065456
5.70630517009
5.70453076288
5.70244691656
5.70009094965
5.69747152038
5.69459793609
5.69148042408
5.68812536831
5.68453150033
5.6806955883
5.6766127919
5.67227861266
5.66768878356
5.66289011076
5.65802650193
5.65295049949
5.64734213955
5.64127058991
5.63492049735
5.62831926052
5.62145332582
5.61464319293
5.60762067893
5.60033762845
5.59279732086
5.58500314043
5.57698960629
5.56884617844
5.56055347122
5.55189950629
5.54284034395
5.53350069191
5.52393975122
5.51417734859
5.50420286012
5.4940138955
5.48361444197
5.47302258303
5.46234012689
5.45126528416
5.72743068121
5.7155336962
5.71798537535
5.72029298399
5.7224765717
5.72454529172
5.72644898031
5.7281567179
5.72964504811
5.73087468757
5.73159056104
5.73169823786
5.73155651474
5.73124564448
5.73063127783
5.72968654186
5.72835613536
5.72664774519
5.72462577707
5.72231669818
5.71971188639
5.7168018675
5.71357710781
5.71003027467
5.7061513915
5.70194209481
5.69740645778
5.69255045316
5.68738009815
5.68207034855
5.67670963405
5.67091666474
5.66452331488
5.65775141761
5.65071734253
5.64343664173
5.63629703147
5.62956084605
5.62262543775
5.61544101163
5.60800988489
5.60033427832
5.59248595978
5.58447595158
5.57619783715
5.56759896253
5.55871809771
5.54961169657
5.54029630166
5.53077345517
5.52103988338
5.51109695233
5.50095778799
5.49065330631
5.4801856287
5.46923683027
5.75759452569
5.74350284267
5.74600166754
5.74838801997
5.7506576242
5.75280055207
5.75476366453
5.75651929456
5.75803906279
5.75921237716
5.75976302457
5.75971568577
5.75942210784
5.75889999415
5.75803176426
5.75678357673
5.75509172594
5.75296988828
5.75050077348
5.74772402613
5.74464078108
5.74125157965
5.73755926494
5.73356648204
5.72927517626
5.72468524256
5.71979733858
5.71461403874
5.70920423304
5.70377241081
5.6981610965
5.69194049546
5.68516610321
5.67807351914
5.67070812695
5.66309461408
5.65667002864
5.65031211777
5.64368817879
5.63680058499
5.6296517756
5.62224756444
5.61463317988
5.60681482776
5.59869238315
5.59026443337
5.58160653813
5.57273016099
5.56363274579
5.55431210884
5.54477061428
5.53503336969
5.52511176807
5.51499391468
5.50465207128
5.49381466336
5.80026195959
5.78426926012
5.78702054037
5.78969360099
5.79225261315
5.79465159598
5.79684776025
5.79882736667
5.80055691553
5.80177887072
5.8022650531
5.80229171612
5.80208116534
5.80153525879
5.80060177377
5.7992326807
5.79737891437
5.79507998411
5.7924180985
5.78942510804
5.78610160215
5.78244646472
5.77847598212
5.77417461159
5.76953341923
5.7645573729
5.75925662042
5.75363234184
5.74789226772
5.74212285965
5.73585191768
5.72887664083
5.72145354568
5.71371816267
5.70569213866
5.69819873391
5.69214402001
5.68580616073
5.679189058
5.67229677924
5.66513326509
5.65770429666
5.65001160519
5.642061224
5.63384464173
5.62537322146
5.61667504694
5.60774850502
5.59859249313
5.58920979437
5.57960449066
5.56982343776
5.55986869575
5.54967383745
5.53923487261
5.52835921041
5.8523388767
5.83460227422
5.83767412107
5.84067293545
5.84354996467
5.84623371729
5.84868627117
5.8509009165
5.85283748501
5.85412803149
5.85457700042
5.85462228487
5.85440601728
5.85376701986
5.8526732188
5.85105335883
5.84890062462
5.84630355955
5.84333049837
5.83999190749
5.83628914265
5.8322378465
5.82784175466
5.82306735675
5.81793144915
5.8124535531
5.80662701188
5.80053436341
5.79439061535
5.78798897741
5.78085637676
5.77308844699
5.76495847152
5.75651091491
5.74783427465
5.74140518301
5.73533201758
5.72895863778
5.7222897007
5.71532675044
5.70807329887
5.70053424364
5.69270637058
5.68460062519
5.67624379824
5.66764706775
5.65880861883
5.64972897631
5.64041214925
5.63086370409
5.62108715595
5.61110797136
5.60094790765
5.59056342034
5.57995915624
5.56897284957
5.91675724074
5.8975208681
5.90110500401
5.90458870875
5.90793679735
5.9110661842
5.9139341791
5.91653264473
5.91881368077
5.9203460181
5.92091554508
5.92103140506
5.92084739569
5.9201813142
5.91898927277
5.91719008853
5.91480753025
5.91195694522
5.90869707335
5.90502902389
5.90100208249
5.8965790089
5.89169769131
5.88639135138
5.88071391773
5.87465081195
5.86829452448
5.86181915417
5.85506476783
5.84761148271
5.83943234951
5.83078765474
5.8217872085
5.81243693383
5.80402719157
5.79805930162
5.79175438876
5.78511890109
5.77815232701
5.77085394022
5.76324294557
5.75533774157
5.74714188017
5.73866850518
5.7299332996
5.72093956923
5.71168953913
5.70218978134
5.69243581729
5.68244025395
5.67221746451
5.66177339901
5.6511401617
5.64032303334
5.62932407215
5.61797470346
5.99331733622
5.97271844466
5.97693647434
5.98101083045
5.98493012295
5.98859737557
5.99196298337
5.99501673768
5.99769798573
5.99949976972
6.00018338598
6.0003526031
6.00018115817
5.999439128
5.99806944701
5.99602016088
5.99335204194
5.99017384787
5.98653242391
5.98242686025
5.97786443026
5.9728063254
5.96728453677
5.96134305731
5.95496795092
5.9481382148
5.94115822847
5.93408427513
5.92624684064
5.91744899351
5.90809614428
5.89835726014
5.88823192027
5.87788047264
5.87084371269
5.86445247381
5.85768585944
5.85054145513
5.84301334236
5.83512953387
5.82693207914
5.81843575563
5.80964372439
5.80056151067
5.79119438384
5.78154926885
5.77163571094
5.76145636799
5.75099785391
5.74028624365
5.72936411176
5.7182540085
5.70696720511
5.69551090226
5.68389334939
5.67195140986
6.08388726955
6.06213319228
6.06721147269
6.07208506736
6.0767743872
6.08116614489
6.08520211499
6.08886895313
6.09208614694
6.09425876914
6.09513139515
6.095421844
6.09532109711
6.09452992707
6.09296848926
6.09064524226
6.0876796915
6.08415531997
6.08008599025
6.07547708617
6.07034883397
6.06465002704
6.05840304195
6.05165407056
6.04440715821
6.03676372005
6.02897499609
6.0207405292
6.01142438123
6.00121059084
5.99050837925
5.97936726339
5.96778642147
5.95792444438
5.95124999682
5.94413234504
5.93656776049
5.92854683703
5.92010776948
5.91131481148
5.90219096877
5.89273461101
5.88295007701
5.87284390756
5.86242551918
5.85170893672
5.84069817122
5.8293920725
5.81781995282
5.80601843152
5.7940309668
5.78188748512
5.76958297284
5.75711859274
5.7445068277
5.73160030697
6.18964133615
6.16690406582
6.17309894118
6.17900937518
6.18466784969
6.18995604616
6.19481822691
6.19923605642
6.20299707714
6.20549320546
6.20666015647
6.20716555359
6.20710126953
6.20618327026
6.20435829298
6.20170278897
6.19835103681
6.19435820749
6.18971475524
6.18448930402
6.17852792621
6.17189747362
6.16471978082
6.15694318456
6.1486564401
6.14006367002
6.13093254295
6.12077068684
6.10956919647
6.09764766066
6.08518319442
6.07220221312
6.05989968101
6.05156421884
6.04383338662
6.03556224825
6.02673988404
6.01741978188
6.00768836365
5.9975745373
5.98707110671
5.97618112759
5.96491541347
5.95328924333
5.94132252772
5.92902186312
5.9163888035
5.90347453364
5.89035494492
5.87704963972
5.86357279394
5.84994572619
5.83616934508
5.82225611093
5.80821485048
5.79391435016
6.31263126349
6.28906957156
6.29677795724
6.30410668747
6.31106346396
6.31753990706
6.32349823992
6.32891541226
6.33331264357
6.33615606381
6.33782691072
6.33875307127
6.33879101757
6.33777341936
6.33572124534
6.33278020682
6.32904629658
6.32453560331
6.31923237119
6.31310608892
6.30617343152
6.29855940807
6.29019284472
6.28117258324
6.27175310961
6.26166525621
6.25033588076
6.23775535029
6.22430554774
6.21016980038
6.19539517267
6.18061384948
6.1700958322
6.16140563803
6.15203130135
6.14196195743
6.13127314935
6.12008368948
6.10842478741
6.09627911185
6.08365354492
6.07056923883
6.05705182744
6.04313161366
6.02882208542
6.01413009086
5.99912925638
5.98392954293
5.96856799229
5.95304083017
5.93736207606
5.9215531607
5.90563634279
5.88962355913
5.87352352537
5.85727295573
6.4548783439
6.43087234343
6.44053382265
6.44967924605
6.45828645424
6.46624221678
6.47351696991
6.48009171235
6.48530644812
6.48865836216
6.49086590725
6.49224332374
6.4924245761
6.49130474422
6.48899615114
6.48566391542
6.48136812636
6.47610959575
6.46988482924
6.46269522462
6.45456873854
6.44543449633
6.43538174946
6.42477017866
6.41357686025
6.40088486983
6.38652961179
6.37109567993
6.35480536346
6.3376941044
6.32040342107
6.30750836241
6.29749398481
6.2866031575
6.27482750691
6.26226440467
6.24906862783
6.23528116183
6.22087105582
6.20584549559
6.19024068602
6.17409808166
6.15746265137
6.14036030424
6.12280845627
6.10490190727
6.08678419231
6.06851165212
6.05007568803
6.03149148478
6.01279546762
5.99402584415
5.9752073094
5.95635596863
5.93754424168
5.91877559927
6.61868268349
6.59492409043
6.60712384552
6.61869097481
6.62966178055
6.63989990995
6.64934867658
6.65791416021
6.66474566932
6.6692260511
6.67220317887
6.67401760341
6.67426337919
6.67299142284
6.67044927313
6.66678909366
6.66204456511
6.65618053563
6.64909869652
6.64074931617
6.63113292638
6.62036942647
6.60853006301
6.59577803094
6.58168127483
6.56550231292
6.54762704725
6.52860689799
6.50847619439
6.48883881875
6.47351567095
6.46162395245
6.44851917821
6.43421353618
6.41883617542
6.4025805197
6.38550370685
6.36757574499
6.34881432944
6.329281414
6.30904710833
6.28818235404
6.26674170575
6.24477014315
6.22239377137
6.19979046198
6.17703989233
6.15414491696
6.13113525384
6.10806725213
6.08499350893
6.06196862369
6.03903862864
6.01628578727
5.99383838617
5.97166375298
6.80595239688
6.78296112636
6.79843383653
6.81320686114
6.8274442861
6.84097802751
6.85372358399
6.86552520051
6.87528327464
6.88205663179
6.88664973139
6.88939726719
6.88998820386
6.88868029189
6.88573134466
6.88127657541
6.87538664687
6.86807763902
6.85927005644
6.84894956661
6.83710951677
6.82389024923
6.8093243501
6.79299168263
6.77431152178
6.7533987822
6.7307855614
6.70671668117
6.68510099345
6.66758400106
6.65330255999
6.63740894999
6.61990155303
6.60094405394
6.58077174195
6.55945856387
6.53696711199
6.51333890325
6.48866324779
6.46303975196
6.43656942694
6.40935252934
6.38148487702
6.3531274256
6.32449419296
6.29569271205
6.26674806141
6.23771754075
6.20868982313
6.1797312514
6.15092640047
6.12240575305
6.0942699291
6.0666303819
6.03957125919
6.01302283393
7.01976369727
6.99835294202
7.01821995168
7.0372934353
7.0558091213
7.0735692317
7.09048663455
7.10650215516
7.12038978885
7.13101982782
7.13924257622
7.1452845889
7.14872886098
7.14975174904
7.14838404973
7.14460953227
7.13847026335
7.1300951877
7.11962888487
7.10718084495
7.09286051206
7.07690550085
7.05855142634
7.03723056283
7.01297508629
6.98636504166
6.95757317324
6.93467116163
6.91554243087
6.89808068191
6.8781829344
6.85586294877
6.83134037264
6.80493685455
6.77674702074
6.7467844992
6.71513955529
6.68197405373
6.6474641859
6.61175630504
6.57504647082
6.53759342143
6.49959421629
6.461273813
6.42281690033
6.38430079521
6.34583454288
6.30755784696
6.26958994463
6.23203315814
6.1950863452
6.15895197777
6.12369936275
6.08937237251
6.05600881589
6.02359176556
7.2608070169
7.24260499093
7.26871005593
7.29392880403
7.31853960884
7.34232524828
7.36498904261
7.38640635296
7.40559875538
7.42149719893
7.43492238448
7.44602761474
7.45422522466
7.459507471
7.46168394006
7.46050408803
7.45577241018
7.44743050559
7.43559982772
7.42056756245
7.40256403268
7.38081829407
7.35490874601
7.32513094074
7.29205922217
7.25621303241
7.23154047731
7.21152665163
7.1901721608
7.16533546137
7.1371267178
7.10574375116
7.07149466587
7.03454882106
6.99496890824
6.95291932127
6.90865051509
6.8624365987
6.81453360739
6.76519824606
6.71485932129
6.66394181319
6.61264804113
6.56117184086
6.50972930213
6.45851965168
6.40775635024
6.35764330312
6.30836999619
6.26016966318
6.21329806278
6.1678722094
6.12391662222
6.08153123645
6.04082742818
6.00196521648
7.52707687408
7.51520834006
7.5513350245
7.58710805631
7.62269548821
7.65776442231
7.692044183
7.72518147141
7.75636197213
7.78438304242
7.80965880675
7.83242400549
7.85196649719
7.86798697332
7.88008517949
7.88779787321
7.89064917354
7.88821155374
7.88039336517
7.86718005615
7.8478040877
7.82133216867
7.78788383359
7.74835990954
7.70363274716
7.67292105216
7.65262139752
7.62632333987
7.59393705667
7.5556836225
7.51191250129
7.46303768178
7.40937717147
7.35120796805
7.28894207982
7.22309184571
7.15421642094
7.0828984961
7.00973359804
6.93540399938
6.86059172496
6.78573068142
6.71110716811
6.63707103833
6.56400070571
6.49220977676
6.42201075044
6.3538076636
6.28787761792
6.22475117373
6.1646020475
6.10733997437
6.05274685544
6.00041326609
5.95034930973
5.90273976126
7.83505527404
7.83267474207
7.88238414646
7.93218348156
7.98224066182
8.0320216387
8.08134447669
8.12980350164
8.17665086278
8.22043307564
8.26079786029
8.29799447008
8.33136535607
8.36017665931
8.383642341
8.40097458602
8.41148658818
8.41458489378
8.40996315811
8.3968335245
8.37309626133
8.33878320366
8.29489711198
8.24247105221
8.20052310889
8.18020923337
8.15233889394
8.11502366865
8.06834942246
8.01278547397
7.94886068516
7.87682278659
7.79714432508
7.71058456655
7.61806258812
7.52055249043
7.41904647745
7.31455930914
7.20811523889
7.10068295836
6.99307206562
6.88599686873
6.78023853271
6.67651217635
6.57537586567
6.47730382746
6.38284314725
6.29249814541
6.206696915
6.12548770207
6.0488293916
5.97630624487
5.90800367068
5.84396189132
5.78439429058
5.7294570967
8.09275808472
8.09703103492
8.15664218309
8.21528579945
8.27393378749
8.33264771042
8.39126383886
8.44904183117
8.50550643401
8.55906821737
8.60797506436
8.65217039538
8.69155433665
8.72545657048
8.75313027668
8.77413095498
8.78795016758
8.79407600201
8.79226267169
8.7807256975
8.75686461922
8.72162868172
8.67575151653
8.61771782131
8.6048365229
8.5940381562
8.56935460775
8.53015604133
8.47607992796
8.40736781616
8.3244216262
8.22743581188
8.11732882291
7.99522911373
7.86246224352
7.7205625126
7.57221974063
7.42027216991
7.26731128784
7.11492971452
6.964432812
6.81705258622
6.67407669156
6.53657991321
6.40576262406
6.28139819773
6.16387285062
6.05162029381
5.94514777745
5.8447864199
5.75184878485
5.66670896928
5.58901781345
5.51845217327
5.4546019955
5.39722366343
8.00454681035
7.94053895057
7.92092237408
7.8861031003
7.84232045159
7.79621287805
7.74951413328
7.70338713098
7.66073467833
7.62341753772
7.59266180393
7.57139090645
7.56154958665
7.5623427985
7.57179989763
7.58741370074
7.60663522873
7.62791241871
7.64937692127
7.66791253882
7.68018151857
7.68542285232
7.68128125603
7.66693273839
7.68484549095
7.7416119999
7.78186408845
7.80489458276
7.80791404191
7.78951465418
7.74814109178
7.68366086877
7.59775142305
7.4937471854
7.37431316196
7.23962207594
7.09265838401
6.93615647328
6.77174016524
6.6050178118
6.43845044897
6.27544041803
6.11963479438
5.97215084186
5.83478536202
5.70744919719
5.58931816583
5.47958032078
5.37816197659
5.2844333023
5.19881580361
5.12164842502
5.05260183507
4.99140539057
4.93763518813
4.89082692343
4.3508708634
4.08013825354
3.90429508312
3.76236419558
3.6623056948
3.60403834877
3.58123431101
3.58826081202
3.62633385349
3.69161549253
3.77912104217
3.88350146039
4.00149439242
4.12951704826
4.26340955808
4.39774367986
4.52637897658
4.64519375606
4.74978397582
4.83793161
4.90875583152
4.9619509381
4.99683234611
5.01483014593
5.02272780024
5.08284837901
5.18653069028
5.27619326972
5.35006970181
5.4063759186
5.44197961796
5.4541392252
5.44148149788
5.40573031964
5.35086535077
5.28156830397
5.20238767995
5.12085354385
5.03676511705
4.94654991631
4.85052841054
4.75021205659
4.64970399523
4.55347795521
4.46453295726
4.38654805298
4.31963398141
4.26279385981
4.21465009489
4.17345927314
4.1383057981
4.10906003989
4.08563421111
4.06785314008
4.05538953568
4.04807755097
1.31528881977
1.32140308435
1.32642762279
1.3312259707
1.33617007647
1.34163718857
1.34805013616
1.35588869812
1.36569808783
1.37811817794
1.39392611373
1.41409988005
1.43991574327
1.47309302231
1.51602128342
1.57208904623
1.6462045207
1.7456241627
1.88071598707
2.07011261656
1.31492947184
1.32038408151
1.32464871103
1.32857913107
1.33254187139
1.33690979797
1.34208061637
1.34849867949
1.35666862217
1.36718021269
1.3807494219
1.39828086499
1.42096758845
1.45043805377
1.48901628883
1.54004351882
1.60866118112
1.70244864643
1.83358168914
2.0276779811
1.31461935243
1.31935097391
1.32280328168
1.32584140485
1.32880227256
1.33203977347
1.33592647324
1.34087003408
1.34732889602
1.3558342776
1.36702834632
1.38172311389
1.40099815235
1.42634404024
1.45993980112
1.50496026631
1.56655712558
1.65222907873
1.77550834692
1.9634287448
1.31434741616
1.318299713
1.3208934492
1.32299953087
1.32492499672
1.32699258263
1.32954357092
1.33294565863
1.33760391317
1.34398018748
1.35262642101
1.36423682237
1.379737418
1.40041796744
1.42820364689
1.46593489532
1.51842770657
1.59258913905
1.70231195101
1.87289726896
1.31410417409
1.31723874279
1.31894544136
1.32008778041
1.32094450895
1.32180714447
1.32298103058
1.32478832247
1.32757423722
1.33172173194
1.33767780912
1.34599589635
1.35741104302
1.37295214028
1.39418271539
1.42344378934
1.4648393667
1.52424766969
1.61416924317
1.75694070359
1.31389069754
1.31617748886
1.31697293459
1.31712687614
1.3168901277
1.31652226767
1.31628965089
1.31646464066
1.31732723651
1.31917369054
1.32233394865
1.32720137515
1.3342881197
1.34430967456
1.35837267774
1.37816800355
1.4067521749
1.44858532809
1.5132670869
1.61946091806
1.31371273739
1.31512370776
1.31498968338
1.31413807905
1.3127922137
1.31117896797
1.30952371237
1.30804611455
1.30695714125
1.30646078579
1.30676123184
1.30807760792
1.31067525732
1.31491567853
1.32137558368
1.33097173081
1.34546969142
1.3675399347
1.40298418963
1.46514472011
1.31357455114
1.31408582402
1.31301039374
1.31114352137
1.30868197144
1.30581943897
1.30273923589
1.29960681321
1.29656211034
1.29371393593
1.29113601376
1.28886528312
1.28690633065
1.28524183623
1.28387395616
1.28286291952
1.28254083879
1.28351694046
1.28748030193
1.30163893654
1.31347638746
1.31307520099
1.31105046628
1.3081657521
1.30459094658
1.30048638358
1.29599309335
1.29122215006
1.28624239801
1.28106738116
1.27564006029
1.26981416295
1.26333086182
1.25578740169
1.24659882864
1.23493798826
1.2196639994
1.19918742452
1.17115437435
1.13634473361
1.3134193053
1.31210219046
1.30912521016
1.30522726463
1.30055056244
1.295222351
1.28934195903
1.28296729307
1.27609796876
1.26865510399
1.26045511179