/*--------------------------------*- C++ -*----------------------------------*\
  =========                 |
  \\      /  F ield         | OpenFOAM: The Open Source CFD Toolbox
   \\    /   O peration     | Website:  https://openfoam.org
    \\  /    A nd           | Version:  7
     \\/     M anipulation  |
\*---------------------------------------------------------------------------*/
FoamFile
{
    version     2.0;
    format      ascii;
    class       surfaceScalarField;
    location    "1";
    object      meshPhi;
}
// * * * * * * * * * * * * * * * * * * * * * * * * * * * * * * * * * * * * * //

dimensions      [0 3 -1 0 0 0 0];

internalField   nonuniform List<scalar> 
14796
(
0.00346578693778
-0.000314937099068
0.00686449636693
-0.000943415447731
0.010178602463
-0.00156898406338
0.01341956793
-0.00219291947771
0.0166001753903
-0.00281875744813
0.0197344647713
-0.00345156254506
0.0228373404868
-0.0040974547753
0.0259245557532
-0.00476297191364
0.0290127592401
-0.00545505411587
0.0321194524067
-0.00618124865567
0.0352630933335
-0.00694980972197
0.0384630569763
-0.00777027911704
0.0417391560721
-0.00865446774761
0.0450582063533
-0.00960143351131
0.0483918888931
-0.0105869878769
0.051821888772
-0.0116107056332
0.0554271822493
-0.0127134776779
0.0592319431889
-0.0139264320662
0.063260209081
-0.0152647847872
-0.0166474799557
0.0670744250375
0.00344776325426
-0.000611406903698
0.00683209814912
-0.00183425314895
0.0101322332431
-0.00305504414405
0.0133565692607
-0.00427131064619
0.0165179735425
-0.00548683987618
0.0196310139642
-0.00671212534527
0.0227105486893
-0.00795997026161
0.025772201802
-0.00924300356246
0.0288326585765
-0.0105743781577
0.0319092014202
-0.0119688935602
0.0350202274824
-0.0134417640606
0.0381857650349
-0.0150092414287
0.0414277244445
-0.0166898026259
0.0447114705468
-0.0184818946045
0.0480050852711
-0.0203473867746
0.0513912819509
-0.0222893312342
0.0549509018094
-0.024382286841
0.0587098007136
-0.0266782403506
0.0626971276817
-0.0291950083372
-0.0317461873385
0.066433565432
0.00340216559738
-0.000870435923436
0.00676163398786
-0.00263322974975
0.0100396095089
-0.00441661411699
0.0132320785326
-0.00618571073877
0.0163561285413
-0.00794022176236
0.0194290664707
-0.00970233874774
0.0224649502935
-0.0114914379927
0.0254787450082
-0.0133244988749
0.0284880179759
-0.015220312192
0.0315091211252
-0.0171997087543
0.0345594225515
-0.0192835873903
0.0376591190736
-0.0214967481381
0.0408385485658
-0.0238412918485
0.0440629683016
-0.0263196797091
0.0472894818095
-0.0289295982027
0.0506006141895
-0.0316682292683
0.0540797905257
-0.0346139954583
0.057754509967
-0.0378332820289
0.0616574457824
-0.0413366634414
-0.044850963365
0.0652959954353
0.00334898167368
-0.00112741232483
0.006670201261
-0.00339975428108
0.00990941824341
-0.00568046016102
0.0130529324737
-0.00793407562007
0.0161217897405
-0.0101658145659
0.0191355012522
-0.0124017520113
0.0221074535182
-0.0146636722722
0.0250520623318
-0.0169720240653
0.0279877708134
-0.0193498869134
0.0309306305934
-0.0218219022713
0.0338996100581
-0.0244178724873
0.0369026719233
-0.0271432147618
0.0399849689252
-0.029997550513
0.0431392086522
-0.033044545632
0.0462911385654
-0.0362800721075
0.049504610662
-0.0396847882664
0.0528752914567
-0.0433669909432
0.0564329530338
-0.0473768551462
0.0602121893457
-0.0517077444489
-0.0560239960856
0.0637369096188
0.00331567495489
-0.00138211302055
0.00657935695653
-0.00412973357277
0.00975084022602
-0.00683663603532
0.012826488722
-0.00950203093948
0.0158232024129
-0.0121435177144
0.0187581565089
-0.0147832846397
0.0216454349441
-0.0174439699471
0.0244998613949
-0.0201493008721
0.0273390958697
-0.0229245342904
0.0301803059133
-0.0257956567578
0.0330454784051
-0.0287926995117
0.0359298752969
-0.0319096089798
0.0388790061879
-0.0351888359923
0.0419319488155
-0.0387125108376
0.0450106913001
-0.0424490436833
0.048130550804
-0.0464223534697
0.0513758543496
-0.0507129302079
0.0547864279308
-0.0553481817572
0.0584078297516
-0.0603637511951
-0.0653500697358
0.0617866553897
0.00327465815781
-0.00159426342678
0.0064688769281
-0.00475095200492
0.00955817893631
-0.00783932605438
0.012551459328
-0.0108664402948
0.0154614323472
-0.0138560890731
0.0183023352341
-0.0168328920905
0.0210886275141
-0.0198221624368
0.0238354005421
-0.0228500593577
0.0265590116542
-0.0259436234829
0.0292767700457
-0.0291302774966
0.0320086567048
-0.0324367893658
0.0347602773787
-0.0358827107298
0.0375594189272
-0.0395243295141
0.040453286667
-0.0434025126254
0.0434209576425
-0.0475209594134
0.0464512625742
-0.0519361432871
0.0495816166921
-0.0567034330757
0.0528475728824
-0.061869335609
0.0562938263282
-0.0674351741119
-0.0729342446004
0.0594989062775
0.00320727100875
-0.00177313267692
0.00632403529702
-0.00527751794329
0.00932684206158
-0.00869222321883
0.012227618035
-0.0120250766634
0.0150389097871
-0.0153033020071
0.0177740293949
-0.0185540295611
0.0204469070335
-0.021804811215
0.0230722109212
-0.0250839555884
0.0256655243327
-0.0284207458166
0.0282433282316
-0.0318455376806
0.0308229017476
-0.0353899520454
0.0334216629925
-0.039087684893
0.0360585587005
-0.0429803195123
0.0387630776713
-0.0471083630219
0.041554790589
-0.0515066954318
0.0444425276802
-0.0562196851172
0.0474455625393
-0.0613259092121
0.0505815620962
-0.0668842541727
0.0538748052627
-0.0728995204352
-0.0788841651784
0.0569152071411
0.00312511315753
-0.00192237639136
0.00615399719151
-0.00571627083073
0.00906200538344
-0.00940050559085
0.0118613043194
-0.012981855071
0.0145641601135
-0.0164893790516
0.0171832904069
-0.0199518582673
0.0197320164775
-0.0233984259002
0.0222244111622
-0.0268590502248
0.0246754373117
-0.0303649475003
0.0271010395436
-0.0339489812752
0.02951822562
-0.0376461636929
0.0319452057597
-0.0414944022599
0.0344020091292
-0.0455355217684
0.0369112972782
-0.0498139731412
0.0394958940397
-0.054376912524
0.0421808156123
-0.0592779622855
0.0449934915521
-0.0645775660856
0.0479572124495
-0.0703352305518
0.051096055594
-0.0766361338309
-0.0829993216116
0.0539989916208
0.00303294793633
-0.00204419328575
0.0059650814771
-0.00607248591782
0.0087704540504
-0.00997089836471
0.011460627258
-0.0137448731812
0.0140471988696
-0.0174242348827
0.0165421575551
-0.0210384542127
0.0189581009312
-0.0246174302264
0.0213084174848
-0.0281920716592
0.0236074508454
-0.0317948232585
0.025870653478
-0.035460190505
0.0281147519941
-0.0392253059592
0.0303579577417
-0.0431305467621
0.0326202590453
-0.0472201096758
0.0349236316616
-0.0515422387828
0.0372918006026
-0.0561497852896
0.0397506137461
-0.0611012859891
0.0423291630412
-0.0664611798658
0.0450606578565
-0.0722991605464
0.0479814893323
-0.0786918972437
-0.0851817944445
0.0507174544267
0.00293436363857
-0.0021416502224
0.0057627038953
-0.00635294867261
0.00845931137435
-0.0104122708725
0.0110345657026
-0.0143260676884
0.0134990328859
-0.0181231884617
0.0158637527877
-0.0218326823225
0.0181404460656
-0.0254843173748
0.0203417038874
-0.0291091199904
0.0224811709639
-0.0327399392371
0.0245737304104
-0.0364120351671
0.0266357014725
-0.0401636983075
0.028685059983
-0.0440368956673
0.0307416789326
-0.0480779143814
0.0328275497301
-0.0523379735994
0.0349669617674
-0.0568739202517
0.0371868220527
-0.0617489898227
0.0395170578186
-0.0670333693605
0.0419906879354
-0.0728045888271
0.044647525867
-0.0791494974978
-0.0856270735436
0.0471603613963
0.00283132472522
-0.00221358374927
0.00555168438239
-0.00655995221123
0.00813586398784
-0.0107345753421
0.0105927143439
-0.0147410213206
0.012931523555
-0.0186068941344
0.0151621947206
-0.0223601640781
0.0172954192578
-0.026029697033
0.0193428619511
-0.0296458238294
0.0213173531755
-0.0332409518553
0.0232330909757
-0.0368502131174
0.0251058582075
-0.0405121530161
0.0269532589878
-0.0442694622525
0.02879497417
-0.0481697500389
0.0306530304272
-0.0522663612354
0.0325520878583
-0.0566192585675
0.0345197771673
-0.0612959594067
0.0365870680533
-0.0663724839509
0.03878861267
-0.0719343275444
0.0411661832652
-0.078079643459
-0.0843970908461
0.0434290914957
0.00272507858963
-0.00226274522903
0.00533686886527
-0.00670194400144
0.00780780350593
-0.0109521266029
0.0101453264669
-0.0150099579477
0.012357371275
-0.018901579497
0.0144525768154
-0.0226532553153
0.0164404701008
-0.0262921889572
0.0183316569626
-0.0298471972785
0.020138022782
-0.0333493849781
0.0218729471785
-0.0368328553057
0.0235515373507
-0.0403354762863
0.0251908843977
-0.0438997161533
0.0268103457414
-0.0475735593426
0.0284318562332
-0.0514115144359
0.0300802732129
-0.0554757253225
0.0317837637258
-0.0598371873091
0.0335742338601
-0.0645770632431
0.0354877904027
-0.0697880916491
0.0375681710645
-0.0755786474212
-0.0815774075382
0.0395652978244
0.0026192996342
-0.00229581799528
0.00512418077892
-0.0067935118975
0.00748358522596
-0.011083537349
0.00970342051945
-0.0151576074531
0.0117901330741
-0.0190388277356
0.0137509623541
-0.0227507586461
0.0155941353153
-0.0263180848906
0.017329062457
-0.029767263553
0.0189665446748
-0.0331272174566
0.0205189973556
-0.036430091073
0.0220006976277
-0.0397120881078
0.0234280605018
-0.0430144112394
0.0248199493261
-0.046384325215
0.0261980257286
-0.04987636388
0.0275871442428
-0.0535536979969
0.029015796302
-0.0574896717322
0.0305166067537
-0.0617695039425
0.0321268770179
-0.0664921233392
0.0338918930551
-0.0717748808491
-0.0772973994468
0.0356045102896
0.00251799269344
-0.00231544533921
0.00492004203048
-0.00684506689897
0.00717225728222
-0.0111485752161
0.00927870920686
-0.0152120299328
0.0112441745083
-0.0190549044672
0.0130743474099
-0.0226973448297
0.0147760184347
-0.0261607607945
0.016357265343
-0.0294684435897
0.0178276604837
-0.0326462639405
0.0191985000686
-0.0357234586211
0.0204830620727
-0.0387335261057
0.0216969002125
-0.0417152604025
0.0228581817016
-0.0447139570528
0.0239880761474
-0.0477828266371
0.0251112016261
-0.0509846471419
0.0262561309778
-0.0543936735917
0.0274559568204
-0.0580977982975
0.0287488986275
-0.0622009014471
0.0301813497405
-0.0668280683723
-0.0717204463398
0.0315913863796
0.00242430829403
-0.002326111187
0.00473090554794
-0.00687007071683
0.00688325224279
-0.0111696510349
0.00888347789107
-0.0152045666399
0.0107345780584
-0.0189902317607
0.0124405858383
-0.0225428355231
0.0140067331321
-0.0258798607138
0.0154396341344
-0.0290206872405
0.0167474896273
-0.0319872953689
0.0179403169079
-0.0348050682495
0.0190302137093
-0.0375037224715
0.0200316662746
-0.0401184108273
0.0209619127229
-0.0426910507349
0.0218413730691
-0.0452719383028
0.0226941556614
-0.0479217095522
0.0235486441956
-0.0507136984408
0.0244381570957
-0.0537367009229
0.0254016396242
-0.0570980498368
0.0264863544972
-0.0609292900216
-0.0650429953854
0.0275778275552
0.00234178937905
-0.00233322920793
0.00456354513731
-0.00688401508611
0.00662639007095
-0.0111715146163
0.00853049671649
-0.0151692884375
0.0102770296926
-0.0188885700656
0.0118682758324
-0.022341206855
0.013307802818
-0.025540183668
0.0146006414902
-0.0285002856092
0.015753485074
-0.0312388206489
0.0167749135886
-0.0337764136692
0.0176756562644
-0.0361379296387
0.0184689064164
-0.0383535955158
0.0191707049692
-0.0404603997585
0.0198004113652
-0.0425038642392
0.02038128215
-0.0445403039724
0.0209411736884
-0.0466397031438
0.021513367399
-0.0488893096444
0.0221374581554
-0.0513979007779
0.02286173462
-0.054302375569
-0.0574968949889
0.0236215476432
0.00227416392544
-0.00234272324208
0.00442507309522
-0.00690387971372
0.00641179157355
-0.0111807231364
0.00823286881268
-0.0151420122724
0.00988764750388
-0.0187957938897
0.0113765910951
-0.0221492301511
0.0127015043708
-0.0252102149841
0.0138657286298
-0.0279883008798
0.0148743292946
-0.030495439139
0.0157343028763
-0.0327467019765
0.0164548250677
-0.034761122794
0.0170475589749
-0.0365627546744
0.0175270442296
-0.0381820439346
0.0179111953532
-0.0396576445488
0.0182219493624
-0.0410388580777
0.0184861141238
-0.0423889710368
0.0187364705334
-0.043789857044
0.0190131291413
-0.0453482055795
0.0193660700853
-0.0472047686425
-0.0493476483265
0.0197838928897
0.00222557135376
-0.00236174293591
0.00432321300785
-0.00694962704754
0.00624965846227
-0.0112256220707
0.00800375472669
-0.015158602557
0.00958272458235
-0.0187581221936
0.0109850451475
-0.0220247210129
0.012210646538
-0.0249602948899
0.0132610976221
-0.0275685791568
0.0141397492579
-0.0298556798074
0.0148518998305
-0.0318305521488
0.015405010518
-0.0335056440154
0.0158089880318
-0.0348977883288
0.0160765521302
-0.0360294159282
0.0162237207084
-0.0369302044375
0.0162704728787
-0.0376393769542
0.0162416919035
-0.038209054592
0.016168567428
-0.0387094307361
0.0160907395095
-0.0392371870066
0.0160601816249
-0.0399302738955
-0.0408850376133
0.0161247684445
0.00219687124424
-0.00238310845905
0.00426247136315
-0.00701238273572
0.00614931371608
-0.011316829989
0.00785587911655
-0.0152503184045
0.00937838918124
-0.0188197182713
0.0107132038113
-0.0220245706553
0.0118582842502
-0.0248605572189
0.0128134144648
-0.0273253821306
0.013580212757
-0.029419260794
0.0141622245828
-0.0311448687105
0.0145650891398
-0.0325077005075
0.0147967844146
-0.0335167396874
0.0148679420451
-0.0341854040658
0.0147922517198
-0.0345327987085
0.0145870150449
-0.0345853835826
0.0142739435752
-0.0343793236943
0.0138804519468
-0.0339642114474
0.013442057598
-0.0334100762915
0.013007939566
-0.0328242819669
-0.0324002677608
0.0126893939824
0.00218493357806
-0.00239876122528
0.00423890791594
-0.00706254491937
0.00611281969331
-0.0114154144257
0.00779816974192
-0.0153976509194
0.00928795226872
-0.0189814145253
0.0105796956518
-0.0221625800541
0.0116694324609
-0.0249436185594
0.0125554402585
-0.0273169794404
0.01323781827
-0.0292784365785
0.0137185174278
-0.0308255949972
0.01400146176
-0.0319581166336
0.0140927786919
-0.0326782770742
0.014001057779
-0.0329917114128
0.0137376306723
-0.0329083039152
0.0133169366385
-0.0324431517212
0.0127569152135
-0.0316174669099
0.0120794857396
-0.0304591255749
0.0113112227175
-0.0290019898444
0.010484312304
-0.0272795792781
0.00957868695341
-0.0250123995987
0.0700235396881
-0.00895769260899
0.0725444463365
-0.00939254200538
0.0751355004191
-0.00979103859794
0.0777565592555
-0.0102038879601
0.0804400617349
-0.0106333649092
0.0832173021804
-0.0110862599238
0.0860910042649
-0.0115658121328
0.0890641672105
-0.0120702582595
0.092140055499
-0.0125982485884
0.0953221405394
-0.0131487339738
0.098614053271
-0.0137208877503
0.102019546938
-0.0143140320134
0.105542468683
-0.0149275770812
0.109186738119
-0.0155609818554
0.112956330046
-0.0162137477983
0.116855256152
-0.0168854717981
0.12088753575
-0.017576007884
0.124964212185
-0.018266850767
0.129101704341
-0.0189649789045
-0.0196477470558
0.132933678005
0.0692783744068
-0.0170397764973
0.0717324893727
-0.0178798805925
0.0742940191449
-0.0186760509405
0.0768934677466
-0.0194867612052
0.0795501199138
-0.0203220511324
0.0822971456562
-0.0212000027985
0.0851376434901
-0.0221267669841
0.0880749529918
-0.0230989616464
0.0911126164053
-0.0241143099278
0.0942543148227
-0.0251712261738
0.0975038235148
-0.0262685482011
0.100864981249
-0.0274053326476
0.104341671786
-0.0285806821202
0.107937818989
-0.029793577548
0.111657401215
-0.0310426869346
0.115504497421
-0.0323261113192
0.119483389565
-0.0336410059834
0.123527896226
-0.0349686037103
0.127652631307
-0.0363437395924
-0.0376883971463
0.131453736024
0.0680251281582
-0.0240248042791
0.0703600987065
-0.0251911695578
0.0728333721399
-0.0263181560931
0.0753850303638
-0.0274819895384
0.0780016420362
-0.0287017028613
0.0807030986835
-0.029984710357
0.0834936892744
-0.0313261350377
0.086377663309
-0.0327245532275
0.0893592344953
-0.0341791465738
0.0924425718029
-0.0356895041974
0.0956317885636
-0.0372554517824
0.0989309273223
-0.0388769226646
0.102343938286
-0.0405538536407
0.105874648262
-0.0422860928463
0.109526714762
-0.0440733086269
0.113303555709
-0.0459148875434
0.117208237655
-0.0478098067334
0.121219328808
-0.0497564698157
0.125355611678
-0.0517850169214
-0.0537073924727
0.12913510253
0.066369427903
-0.0299627559674
0.0685846344892
-0.0313764337332
0.0709302408914
-0.0327563694606
0.0734013217184
-0.0342271928555
0.075963515522
-0.0358045626305
0.0786063227442
-0.0374611065443
0.0813353221451
-0.0391781513691
0.0841557531965
-0.0409583272782
0.0870725809019
-0.0428036983466
0.0900905655942
-0.0447160435257
0.0932142998989
-0.046696946264
0.096448223373
-0.0487478456204
0.0997966200066
-0.0508700763809
0.103263600137
-0.0530649186948
0.106853065306
-0.0553336782807
0.110568651412
-0.0576778260444
0.114413641696
-0.0600992435696
0.118390766075
-0.0626006778823
0.1225231218
-0.0651910297769
-0.0675998223968
0.126287091341
0.0643107252971
-0.0349144414696
0.0664223339577
-0.0365330533145
0.0686512030278
-0.0381264728411
0.0710254332253
-0.0398602742743
0.073509444795
-0.0417371979268
0.0760748490018
-0.0437049801517
0.0787272037633
-0.0457399608141
0.0814719814438
-0.0478464328677
0.0843144826568
-0.0500281061753
0.0872598587684
-0.0522882837411
0.09031312836
-0.0546299104097
0.0934791881629
-0.057055615576
0.0967628200141
-0.0595677521135
0.100168696396
-0.0621684339257
0.103701388671
-0.064859573155
0.107365384918
-0.0676429142015
0.111165129729
-0.0705200518873
0.115105025609
-0.073492431115
0.119209616194
-0.0765681778684
-0.0794263336237
0.1229544183
0.0618916925976
-0.0389371609455
0.0638955052205
-0.0407298899462
0.066017146803
-0.0424970235577
0.0682894632469
-0.044434811858
0.0706772855449
-0.0465450939565
0.0731496265369
-0.0487615127883
0.0757119343049
-0.051054559071
0.0783698030287
-0.0534297899549
0.0811287827654
-0.0558922020008
0.0839943616366
-0.0584463128336
0.0869719585646
-0.0610961682616
0.0900669200429
-0.0638453625517
0.0932845182268
-0.0666970610015
0.0966299498011
-0.0696540204126
0.100108336303
-0.0727186066563
0.103724727054
-0.0758928103408
0.107484105944
-0.0791782594853
0.11139129953
-0.0825762557777
0.115472431273
-0.0860976691835
-0.0893793794828
0.119204013976
0.0591678067915
-0.0421023137869
0.0610500144225
-0.0440102976851
0.0630519405316
-0.0458919611504
0.0652108659837
-0.0479741150331
0.0674901694391
-0.0502563040307
0.0698574280049
-0.0526604256797
0.0723186159726
-0.0551522458644
0.0748797858873
-0.057739264402
0.0775469189876
-0.0604280007397
0.0803259479718
-0.0632242148713
0.08322276712
-0.0661330080305
0.0862432324933
-0.0691588901639
0.0893931548329
-0.072305815668
0.092678287588
-0.0755771940686
0.0961043124916
-0.0789758835711
0.0996768255702
-0.0825041767946
0.103401328665
-0.0861637878393
0.107283103838
-0.0899558814022
0.111350225229
-0.0938943448329
-0.097578433926
0.115079144542
0.0561395234495
-0.0443396442694
0.0579125879043
-0.0463900663909
0.0597868780585
-0.0483692217819
0.0618152081334
-0.0505271438599
0.0639713190151
-0.0529031925826
0.0662208774112
-0.0554255950118
0.0685699985971
-0.0580532380066
0.0710250189664
-0.0607942946058
0.073592279421
-0.0636560099762
0.0762781630272
-0.0666448697002
0.0790891022824
-0.069766745577
0.0820315667561
-0.0730269860222
0.0851120369924
-0.0764304222829
0.0883369683977
-0.0799813236354
0.0917127463038
-0.0836833146211
0.0952456326894
-0.0875392566281
0.0989417066861
-0.0915510873404
0.102806630641
-0.0957196177772
0.106870194986
-0.100061151316
-0.104139109711
0.110606542833
0.0527588188085
-0.0455289754619
0.0544499649331
-0.0477110687751
0.0562158523497
-0.0498105946624
0.0581117594965
-0.0520504013636
0.0601334604608
-0.0544730404559
0.0622547112283
-0.0570474341222
0.0644822589649
-0.0597523171228
0.0668225894842
-0.0625942882784
0.0692823763759
-0.0655801074989
0.071868524362
-0.0687163151373
0.0745881575331
-0.0720093076641
0.0774485871173
-0.0754654447023
0.0804572500878
-0.0790908894713
0.0836216448629
-0.0828914507994
0.0869492568566
-0.0868724237445
0.0904474645348
-0.0910384024554
0.0941234140469
-0.0953930313769
0.0979836166073
-0.0999386241438
0.102060003316
-0.10469657425
-0.109197575953
0.105821519112
0.049058177995
-0.0457475961044
0.0506518245014
-0.0479594855982
0.0523197319032
-0.0501221294211
0.0540900581659
-0.0524215702248
0.0559749149158
-0.0548687769309
0.0579667687983
-0.057467916781
0.0600686793697
-0.0602183396016
0.0622875845469
-0.0631238861619
0.0646325628328
-0.0661939299578
0.067111760097
-0.0694373068538
0.0697333933781
-0.0728622472901
0.0725060297085
-0.07647719847
0.0754385104286
-0.0802906829493
0.0785398874038
-0.0843111136697
0.0818193731497
-0.0885466790794
0.0852862810253
-0.0930052630755
0.0889499425666
-0.097694349377
0.0928192838743
-0.102620765817
0.09693073393
-0.107815644838
-0.112781385199
0.100746273286
0.045148444588
-0.0450686007748
0.046607781573
-0.0472564187132
0.048149739763
-0.0493966123148
0.0497835521267
-0.0516724947701
0.0515236544098
-0.0540979159699
0.053376357004
-0.0566858353666
0.0553462035311
-0.0594449932451
0.0574392018685
-0.0623822483061
0.0596619180266
-0.065501873828
0.0620244869358
-0.0688123597391
0.064538495023
-0.072327851147
0.0672141050723
-0.0760613809365
0.0700619915009
-0.0800248282928
0.0730931536641
-0.0842300600981
0.0763189658045
-0.0886887861083
0.0797512235562
-0.0934128217939
0.0834022027943
-0.0984144611837
0.0872843640795
-0.103706847788
0.091440399457
-0.109334696033
-0.114779953583
0.0953250747613
0.0410947126564
-0.0435233213144
0.0424008632321
-0.0456315886151
0.0437904338547
-0.0477002564776
0.0452700701883
-0.0499098334612
0.0468507675494
-0.0522705594369
0.0485438167789
-0.054796520994
0.0503602334912
-0.0575054605594
0.0523086305726
-0.0604127779638
0.0543951527996
-0.0635274896917
0.0566289764275
-0.0668584284254
0.0590218280688
-0.0704183135872
0.0615864073438
-0.0742233970037
0.0643363495224
-0.0782921439394
0.0672844814421
-0.0826410136887
0.0704442368218
-0.0872840627147
0.0738296997029
-0.0922351993339
0.0774556549791
-0.0975085483313
0.0813372419403
-0.103118399405
0.0855217649054
-0.109114163017
-0.11495443039
0.0894569861998
0.0369290553915
-0.0411786470015
0.0380695803766
-0.0431541264957
0.0392927101999
-0.0451012631199
0.0406044148326
-0.0471949307178
0.0420144734934
-0.0494470076406
0.0435341290205
-0.0518715319941
0.0451754432502
-0.0544831516032
0.0469513739318
-0.0572989115829
0.0488748556575
-0.0603396912028
0.0509578784752
-0.0636255438041
0.0532084308006
-0.0671650013034
0.0556425005237
-0.0709760831692
0.0582782882832
-0.0750979868786
0.0611273827589
-0.0795526816661
0.064205184291
-0.0843478140131
0.0675280874668
-0.0894979532196
0.0711130343498
-0.0950186793408
0.0749766461218
-0.100923446523
0.0791678596236
-0.107260283992
-0.113458173182
0.0831264250063
0.032696401514
-0.038118378882
0.033658173377
-0.0399082727864
0.0347004138816
-0.0416842264946
0.0358298756821
-0.0436103381896
0.0370565989762
-0.0457005732136
0.0383913601679
-0.0479715738063
0.039846002086
-0.0504413960319
0.041434014564
-0.053129561323
0.0431717366462
-0.0560599484276
0.045077060144
-0.0592635059408
0.0471521178217
-0.0627218026573
0.049419194488
-0.0664161096255
0.051915920421
-0.0704672168739
0.0546490879236
-0.0749770965483
0.0576275107587
-0.0799084843944
0.0608727402516
-0.0852436427238
0.0644063885958
-0.0910156416961
0.0682489870636
-0.0972521148758
0.0724531798171
-0.104017736767
-0.110724265999
0.0764499292503
0.0284503974756
-0.0344431867383
0.0292219299126
-0.0359949723027
0.0300704908949
-0.0375498520275
0.0310035415169
-0.0392551865829
0.0320315817532
-0.0411267669968
0.0331661183351
-0.0431834999962
0.03441984472
-0.0454465464685
0.0358067525833
-0.0479398410463
0.0373434521649
-0.0506907480561
0.039049876939
-0.0537312444163
0.0409260534539
-0.0570528803749
0.0429930400951
-0.0606371714193
0.0453115574112
-0.0646003126192
0.0478950729726
-0.0690692174903
0.0507428226113
-0.0740272286314
0.0538845197448
-0.0794662972941
0.0573500620161
-0.0854390514577
0.0611688729705
-0.091995157931
0.0654004762794
-0.0992219972109
-0.106514247471
0.0694669941047
0.0242514108237
-0.0302732061044
0.024823690212
-0.0315368861706
0.0254684149256
-0.0328233692863
0.0261933724509
-0.0342566238091
0.0270089776004
-0.0358531358586
0.0279268166755
-0.0376324505136
0.0289599590295
-0.0396166155987
0.0301232632455
-0.0418306431964
0.0314336850427
-0.0443028268988
0.0329109955919
-0.0470647897286
0.0345674589872
-0.0501509558637
0.0364200444019
-0.0535931594403
0.038522968889
-0.0574475387553
0.0409070304877
-0.0617896463525
0.0435768076361
-0.0666571346077
0.0465672119636
-0.0720845042949
0.0499209938585
-0.0781420420431
0.0536804993203
-0.0849093725731
0.0579206706949
-0.092520826481
-0.100359595867
0.0620499971582
0.0201642805812
-0.0257466686299
0.0205323910597
-0.0266781379275
0.0209682078197
-0.0276568779673
0.021479002841
-0.028776422068
0.0220740523476
-0.0300523608164
0.0227639120166
-0.031503277416
0.0235609015402
-0.0331510071837
0.0244795298159
-0.035021545365
0.0255368569943
-0.0371458013754
0.0267527561157
-0.0395601481603
0.028149966475
-0.0423067036719
0.0297511304852
-0.0454337763772
0.0315975386678
-0.0490090438448
0.0337316468035
-0.0531163569089
0.0361716155678
-0.0578092872048
0.0389503454055
-0.0631222212579
0.0421381513222
-0.0691863806066
0.0457783999403
-0.076101817354
0.0499461527603
-0.0839062424437
-0.0920497223456
0.0540759803849
0.0162514282464
-0.0210088594678
0.0164167881607
-0.0215712144824
0.0166478583205
-0.0222171210888
0.016949262797
-0.0229993769316
0.017327094386
-0.0239283324807
0.0177891259906
-0.0250177941215
0.0183455169245
-0.0262863723689
0.0190094329085
-0.0277589652069
0.0197976235631
-0.0294682283809
0.0207307643972
-0.0314557808952
0.0218335249596
-0.0337726795098
0.0231348709749
-0.0364795612237
0.024674188649
-0.0396507360619
0.0265003636613
-0.0433832135618
0.0286493448797
-0.0477740674898
0.0311436788399
-0.0528185513459
0.0340840166419
-0.0586259429092
0.0375425750414
-0.0655269342569
0.0415691259917
-0.0736745708445
-0.0822301138888
0.045609587175
0.0125497210266
-0.0161722898398
0.012525335464
-0.0163293386426
0.0125740446141
-0.016647589166
0.0126904526068
-0.0171060568504
0.012873544481
-0.0176975354119
0.0131257049382
-0.0184242709988
0.0134527844972
-0.0192962992744
0.0138647649447
-0.0203322644123
0.0143775202746
-0.021562935433
0.0150132887611
-0.023035258857
0.015798797134
-0.0248113411596
0.0167649990393
-0.0269651788608
0.0179499208241
-0.0295844119755
0.0194047629986
-0.0327799999881
0.0211868529377
-0.0366965264884
0.023316299478
-0.0413404357571
0.025883588586
-0.0467007418561
0.0290396729175
-0.0532678604996
0.0328649850358
-0.061583929033
-0.0707474401711
0.0367813483532
0.00935848037473
-0.0119213518293
0.00922714163605
-0.0120356481653
0.00916618527085
-0.0121982222406
0.00916318222738
-0.0124698383771
0.00921224989841
-0.0128430424406
0.00931103078395
-0.0133161759324
0.0094597623526
-0.0138910988359
0.009660796612
-0.0145720972865
0.00992882578665
-0.0153781355895
0.0102938361444
-0.0163652468135
0.0107853363791
-0.0176148274471
0.0114304354856
-0.0192060230097
0.01226213203
-0.0212219907323
0.0133252634335
-0.0237673644921
0.0146839552459
-0.0269858841013
0.0163814417405
-0.0309822533076
0.0184771316324
-0.0358102991481
0.021133443711
-0.0418016411326
0.0244810429563
-0.0494230805964
0.0278096602165
-0.0579317229739
0.13581154491
-0.0101997075557
0.138157947056
-0.0104130284238
0.140544403946
-0.0106367917664
0.14289951593
-0.0108569153649
0.145135620852
-0.0110582823225
0.14729107452
-0.0112361099628
0.149420717021
-0.0113988150695
0.151524280037
-0.0115512249824
0.153607558139
-0.0116936907473
0.15568301014
-0.0118273770835
0.157829652374
-0.0119602936708
0.160136202546
-0.0121096152619
0.162563305736
-0.0122825224288
0.165055419255
-0.0124706394929
0.167612730133
-0.0126683309785
0.170303083652
-0.0128817217446
0.17318625359
-0.0131214295642
0.176178297759
-0.0133840271529
0.179202680723
-0.0136552953502
0.182258810457
-0.0139289523975
0.185346415575
-0.0142048426938
0.188465222309
-0.0144827260764
0.191614948814
-0.0147624480381
0.194795299228
-0.0150439066607
0.198005959388
-0.0153270393884
0.201246592959
-0.0156118255315
0.204516837159
-0.0158982938534
0.207816297831
-0.0161865343289
0.211144543585
-0.0164767148903
0.214483453787
-0.0167644499289
0.217768936284
-0.0170270250226
0.221057943421
-0.0172629737115
0.224500421318
-0.0175158782523
0.22805455527
-0.017800788225
0.231631222347
-0.0180981928971
0.23522999764
-0.0183984251317
0.23885079514
-0.0186988782683
0.242493144965
-0.0189987945239
0.246156406716
-0.0192979573934
0.249839931093
-0.0195961913226
0.253543051885
-0.0198933974007
0.257265078763
-0.0201895436709
0.260986218891
-0.0204799794899
0.264635249219
-0.0207400417194
0.268207364797
-0.0209646608704
0.271869508567
-0.021213465556
0.275708756797
-0.02151898892
0.279622956218
-0.02185015455
0.283542371141
-0.0221854275615
0.287466434217
-0.0225197271839
0.291394838126
-0.0228501862755
0.295326844925
-0.0231764235437
0.299261493668
-0.0234986027723
0.303179741588
-0.0238055455657
0.307009043887
-0.0240641897337
-0.0242767505298
0.1342926826
-0.0195627954041
0.136607392929
-0.0199633971366
0.138962292341
-0.0203857851796
0.14128435269
-0.0207975202827
0.14348447737
-0.0211653241624
0.1456023794
-0.0214845605547
0.147694490282
-0.0217758984416
0.149760532704
-0.0220487311538
0.151806595235
-0.022303570055
0.153845756204
-0.0225426879885
0.155958422861
-0.0227862744028
0.158235109768
-0.0230725151584
0.16063539096
-0.0234099371536
0.163101938629
-0.0237763026852
0.165635017528
-0.0241605388911
0.168300846074
-0.0245744708268
0.171156935224
-0.0250381967164
0.174119815252
-0.0255448542701
0.177114070305
-0.0260670435422
0.180139211381
-0.0265926863884
0.183195073872
-0.0271215301745
0.186281486015
-0.0276531589315
0.189398267698
-0.0281872515329
0.192545229504
-0.0287235177894
0.195722172808
-0.0292616681233
0.19892889116
-0.0298013994129
0.202165172781
-0.0303423809735
0.205430804467
-0.0308842376136
0.208725577297
-0.0314265272937
0.21199880866
-0.0319519055508
0.215208472695
-0.0324341532223
0.218476359701
-0.0329098575952
0.221904808456
-0.0334385092895
0.225418842236
-0.0340082581194
0.228954200853
-0.0345868660359
0.232510732418
-0.0351658693702
0.236088364084
-0.0357429223826
0.239686758806
-0.0363172635721
0.24330549077
-0.0368884483651
0.246944131378