/*--------------------------------*- C++ -*----------------------------------*\
  =========                 |
  \\      /  F ield         | OpenFOAM: The Open Source CFD Toolbox
   \\    /   O peration     | Website:  https://openfoam.org
    \\  /    A nd           | Version:  7
     \\/     M anipulation  |
\*---------------------------------------------------------------------------*/
FoamFile
{
    version     2.0;
    format      ascii;
    class       volScalarField;
    location    "1";
    object      p;
}
// * * * * * * * * * * * * * * * * * * * * * * * * * * * * * * * * * * * * * //

dimensions      [0 2 -2 0 0 0 0];

internalField   nonuniform List<scalar> 
7540
(
436.055543471
435.29565037
433.415725829
430.588632628
426.891380683
422.297747134
416.772368938
410.307412454
402.910193466
394.588974894
385.352184287
375.213294737
364.194105352
352.325901143
339.650316218
326.220565921
312.102616722
297.376855452
282.135875697
266.483700377
437.527734585
436.85422408
435.052849437
432.269700171
428.598443884
424.023551355
418.510047791
412.047933077
404.642908208
396.301753389
387.030976847
376.841739643
365.753378672
353.794728428
341.005099409
327.435600073
313.150621171
298.229849
282.769101459
266.883281944
440.444876777
439.749961258
437.923082627
435.116637707
431.423389416
426.825763197
421.285237491
414.787743707
407.335069339
398.930001885
389.574725316
379.275881276
368.048321291
355.916576335
342.916005928
329.094354986
314.51306015
299.249542819
283.39225766
267.038953383
444.785116582
444.091869342
442.274778136
439.487809174
435.81452195
431.230130396
425.691728205
419.180821947
411.693702448
403.226827127
393.775569705
383.339528457
371.926387248
359.553527737
346.249621
332.05660757
317.031526356
301.249417206
284.80206033
267.80282242
450.564469741
449.885690584
448.086404445
445.318433567
441.660361994
437.082465005
431.537225699
425.000475931
417.461203147
408.907319118
399.324918963
388.703797592
377.04141754
364.34497838
350.633619389
335.940923621
320.317160444
303.833070525
286.576642982
268.653456932
457.779807238
457.120335
455.347772165
452.611469545
448.985812633
444.435483845
438.906118665
432.365186309
424.791645728
416.161937476
406.449531885
395.630615042
383.688403506
370.615908989
356.418607165
341.117581426
324.752937449
307.388637315
289.109921159
270.028092842
466.419334945
465.785090549
464.053328148
461.368961743
457.800082279
453.304306828
447.818827934
441.300712558
433.716426916
425.027977395
415.192640299
404.168903548
391.921280056
378.423635235
363.662464116
347.641338588
330.385483998
311.947919226
292.405363651
271.864093843
476.461510563
475.859954735
474.187370245
471.582018534
468.103808762
463.702389749
458.305436445
451.857684767
444.310331635
435.607423167
425.68577603
414.481150105
401.933478593
387.99077826
372.61349581
355.780538787
337.495184987
317.794133291
296.743338013
274.453402367
487.87071226
487.311001735
485.721408181
483.231093212
479.889829414
475.638407925
470.393858896
464.086494128
456.649181758
448.004081199
438.062686537
426.732034925
413.920205159
399.540951002
383.519317961
365.799485929
346.352640728
325.190005411
302.356904589
277.960315849
500.592455581
500.085804898
498.609391569
496.280404526
493.136337744
489.108459943
484.102457687
478.032490318
470.810150448
462.331599977
452.477648635
441.119683559
428.125118707
413.362674458
396.709378682
378.060722034
357.341124342
334.522333407
309.615578243
282.713786866
514.547978703
514.107892027
512.78170064
510.671588719
507.800525455
504.089934269
499.43415723
493.730110216
486.865542357
478.706625277
469.097853234
457.867115447
444.830573885
429.798329213
412.582744562
393.011305505
370.940431994
346.281950889
318.995241244
289.156925699
529.62836792
529.270845321
528.138843319
526.316649744
523.810429942
520.532413555
516.366912306
511.193254879
504.873069454
497.239256382
488.095138412
477.217029517
464.357602049
449.251598571
431.625031161
411.210644366
387.765500674
361.108241346
331.110616408
297.804678353
545.688619652
545.431249891
544.545529322
543.092118254
541.057052114
538.346964599
534.840177305
530.400007097
524.860268641
518.018263848
509.632649361
499.420858096
487.05917436
472.187456089
454.417956326
433.352385431
408.602871767
379.84357132
346.801453878
309.419933591
562.545029942
562.396701227
561.821432092
560.830597782
559.385835769
557.398462405
554.746823867
551.279317898
546.804408929
541.087152113
533.840289512
524.715856897
513.301721163
499.122286522
481.643346488
460.288238272
434.459693586
403.608304082
367.221566764
325.086816998
579.983131434
579.925695397
579.735021481
579.303459027
578.574243922
577.476527238
575.911522482
573.69436865
570.614098207
566.419752855
560.784538699
553.292085589
543.433148335
530.598304233
514.071229519
493.038324256
466.606349312
433.888015926
393.972225635
346.314056014
597.656072485
597.814923406
598.02117392
598.225720728
598.347732238
598.285739742
598.054479139
597.390681315
596.080218932
593.871996695
590.414038343
585.23225586
577.722255965
567.130338734
552.525643497
532.79021657
506.617488435
472.617608237
429.25861165
375.446771571
615.30065903
615.649495324
616.317061478
617.239490478
618.33970867
619.556803985
620.824245591
621.984637156
622.838121899
623.126445555
622.489187342
620.425417599
616.260528863
609.107015128
597.806412059
580.880432298
556.467328425
522.408479978
476.067276223
415.435227473
632.528768603
633.066076054
634.242636462
635.961525216
638.139152478
640.739352575
643.718389547
646.982542814
650.372882039
653.660011929
656.514118449
658.455200856
658.794345603
656.561373521
650.402977719
638.478960113
618.297096607
586.697444626
539.230359214
471.380254292
648.948377244
649.666351512
651.355203117
653.888274616
657.179768634
661.233525564
666.059561306
671.622502723
677.832085294
684.538738034
691.502877995
698.338433044
704.434159323
708.847393351
710.143085385
706.205201227
693.910386431
669.043469756
625.451083396
555.482443366
664.134892979
665.086982687
667.327462283
670.68607456
675.098885876
680.629434095
687.354850024
695.315464142
704.519974078
714.946140557
726.512731559
739.026131583
752.098003927
765.024456502
776.566531118
784.672928855
785.772027931
774.544145202
741.288059835
677.018620469
254.526620062
246.521860634
238.517495584
230.514307532
222.519735692
214.55739468
206.65267273
198.827795181
191.10395131
183.503129389
176.048057718
168.761622453
161.666627094
154.785706497
148.141270454
141.755616224
135.651332214
129.850222355
124.377692797
119.249556379
254.759776358
246.597320228
238.411989023
230.226227675
222.052778929
213.909625852
205.819146699
197.804376958
189.887901154
182.092298939
174.440471437
166.955496137
159.660309418
152.577433233
145.728765424
139.135251799
132.816651211
126.790329734
121.073962852
115.677730828
254.488973963
246.083287799
237.689652401
229.271862998
220.845863668
212.442543477
204.088376491
195.806224898
187.618985288
179.550551466
171.625434517
163.868354544
156.304034247
148.957118441
141.85219264
135.013721089
128.466507996
122.234683647
116.34754821
110.825124947
254.751438213
245.980656989
237.144724707
228.291884914
219.431194855
210.580289106
201.766065128
193.015479606
184.353714732
175.806057312
167.398661355
159.158075974
151.110736165
143.282752052
135.699809405
128.38684731
121.368088832
114.665345815
108.303022307
102.29585972
254.816073789
245.455067745
236.102114441
226.70243302
217.261225549
207.813889482
198.393829446
189.028384145
179.744012589
170.568669928
161.531439968
152.661761195
143.989051111
135.542597909
127.351558199
119.444740846
111.851055004
104.597661403
97.7175376435
91.2330876464
255.231886892
245.199510225
235.128798988
224.994105659
214.796120846
204.568693689
194.349325876
184.169570011
174.059122052
164.049229287
154.172600071
144.462366606
134.951565411
125.673005189
116.659222868
107.942119829
99.553339426
91.5217290793
83.8818527821
76.6562796281
255.818849621
244.910346931
233.962033486
222.911017975
211.7566866
200.542201882
189.313116491
178.105602156
166.952737996
155.889990401
144.955047832
134.185997935
123.620656841
113.296621538
103.251317994
93.5216090006
84.1444583551
75.1538796512
66.5920543848
58.488113823
256.924448938
244.968457766
232.88827171
220.692435793
208.358069259
195.919783999
183.433306402
170.944154197
158.490667967
146.11323067
133.855486676
121.76180851
109.87600505
98.2413692847
86.9008622329
75.8966418171
65.2708740362
55.0618443489
45.3175187239
36.070960922
258.605533514
245.34133152
231.886733654
218.314158543
204.53218431
190.582276217
176.542520269
162.469871116
148.408442148
134.405382605
120.512389195
106.781836716
93.2649900161
80.0120862798
67.072721823
54.4954331425
42.3288907262
30.6171877496
19.4170552717
8.76903780442
261.142620175
246.271606283
231.182125152
215.939203142
200.378320975
184.570490778
168.621135057
152.599886593
136.55930374
120.556049623
104.652523502
88.9113036403
73.3925184803
58.1540631773
43.2523225735
28.7418210325
14.6768801265
1.10584950674
-11.9076817576
-24.3182152106
264.964720513
248.204838272
231.16183487
213.722697
195.936686707
177.846570053
159.539902283
141.107021941
122.622266263
104.155998376
85.7825849838
67.5769604087
49.6103569781
31.9493692369
14.6570662336
-2.20700537503
-18.5842215539
-34.4233509014
-49.653354837
-64.2215711092
270.411174552
251.302973245
231.78902885
211.745741723
191.242261012
170.324939693
149.099987806
127.687046143
106.187072931
84.6923453315
63.2953568627
42.0856841907
21.1457077627
0.54937364748
-19.6362544388
-39.3505750839
-58.5361374667
-77.146615317
-95.1133160237
-112.385993985
278.119644281
256.089321453
233.463914787
210.175960913
186.348429123
161.881991976
136.974886013
111.823134229
86.5652533661
61.3225738396
36.2170229547
11.3624089632
-13.1456251719
-37.2324617051
-60.8398961693
-83.9208910308
-106.432642416
-128.34515242
-149.600683115
-170.161732027
289.060732568
263.457576928
237.028280313
209.693098589
181.425562388
152.366908818
122.769369783
92.8697798988
62.866505432
32.9354650273
3.23877298197
-26.0789277248
-54.8990322455
-83.1386150463
-110.754000912
-137.735788738
-164.09571787
-189.867111031
-215.043217211
-239.607223598
304.376558484
274.178313531
242.796110941
210.162403522
176.077524586
141.009147799
105.2956673
69.2775127772
33.2859609111
-2.39475591241
-37.5476565077
-72.0313243698
-105.766436053
-138.709838737
-170.842909644
-202.185409707
-232.81459318
-262.889430902
-292.588590706
-322.114085193
326.315245082
290.169505128
252.102527058
212.086581571
170.176161808
126.851691016
82.7009603393
38.2798432152
-5.85845955905
-49.1637803384
-91.1635949714
-131.580137926
-170.400268863
-207.820756927
-244.107568025
-279.516430339
-314.295944857
-348.707465707
-382.889800667
-416.998863795
357.593228822
314.047774701
267.472906941
217.732727988
164.917976959
109.857427489
53.7638730906
-2.23438147114
-57.2794930916
-110.748398268
-162.111639455
-210.841842714
-256.603770388
-299.272857873
-339.066538434
-376.768979612
-413.648232734
-451.0441987
-489.969811957
-531.855112029
399.969268793
344.314191432
284.370636922
220.223684521
151.596178298
79.3717892535
5.81640208605
-66.0709682616
-133.670196105
-195.287233648
-250.836657629
-302.169323648
-351.323594097
-397.745771725
-439.656033569
-477.243523067
-512.730141695
-547.859384673
-584.043962265
-626.372737975
472.528390038
401.428232598
321.093748884
233.060850873
138.381480309
38.5809814981
-64.304800176
-167.065483148
-265.094275232
-349.52201339
-413.425608215
-461.305336214
-500.819069112
-537.870256157
-574.986415726
-613.727131518
-655.327945013
-696.970638417
-726.139981591
-746.062388408
600.992556689
529.07304399
431.931601317
303.86294501
151.486479328
-8.84171118424
-164.797620783
-312.653708145
-452.062523293
-586.186899287
-712.150124715
-809.346400801
-871.619695023
-901.814151988
-898.396753314
-869.686382085
-826.86608128
-780.071876359
-744.872811826
-728.61796872
115.691774
113.417729637
111.202501181
109.074451572
107.049661054
105.128631736
103.30889685
101.590972467
99.9772082052
98.4689669677
97.0672647436
95.776074577
94.5988680873
93.534710877
92.5838351302
91.7495887731
91.0334010143
90.4337954027
89.9476601463
89.5718484782
89.303197647
89.1383464429
89.0731949447
89.1035189138
89.225448148
89.4389948889
89.7468905931
90.1515519731
90.6543646591
91.2564732934
91.9591981721
92.763959262
93.6725583725
94.6870973788
95.8089380849
97.0359601454
98.3654917611
99.7955403545
101.324345297
102.949996466
104.670476552
106.483772193
108.387873247
110.380706053
112.460143904
114.624216985
116.871078675
119.198715338
121.604954735
124.087679336
126.644869517
129.274508359
131.974563818
134.742975939
137.577525895
140.476428409
111.897161282
109.523909954
107.235924881
105.03005778
102.917503998
100.90499223
98.9934490062
97.1827983106
95.4740015702
93.8684886161
92.3673822592
90.9714705209
89.6811812472
88.4964426311
87.4167759593
86.4414889286
85.5703714659
84.8048848611
84.148829954
83.606141639
83.1800587043
82.8740671291
82.6909688515
82.6345328322
82.7085554361
82.9102074983
83.2364918002
83.6853298759
84.2547422774
84.9415627872
85.7421058706
86.6527120975
87.6696271188
88.7889000928
90.0067469665
91.322276485
92.7349947605
94.2437020509
95.8469138858
97.5432062188
99.3311467459
101.20919987
103.175714367
105.228863565
107.366783732
109.587825136
111.890309659
114.272323874
116.731873918
119.266981376
121.875685415
124.55601472
127.305989035
130.123549885
133.006488324
135.953174177
106.996838142
104.534703713
102.14194414
99.8398701065
97.6438035908
95.5552774621
93.5725302506
91.696157251
89.9284253938
88.2714793461
86.7268954927
85.2960800312
83.9802446895
82.7803133266
81.6971339219
80.7314956283
79.8841067116
79.1554975816
78.5459151516
78.0555106494
77.683860103
77.4318406471
77.3020310525
77.3579334866
77.4147019086
77.5866633888
77.9099106119
78.3549454446
78.9072817939
79.5694509616
80.3427700069
81.225424412
82.2159890225
83.3135225488
84.5169497897
85.8250087547
87.2363823065
88.7496814902
90.3633458174
92.0756580082
93.8847990272
95.7888655905
97.7857442758
99.8731437031
102.049056794
104.311704255
106.659060153
109.088879225
111.598878184
114.186773616
116.850280111
119.587102323
122.394846579
125.270971558
128.212979699
131.219028718
98.097705108
95.4137447027
92.8286290676
90.3384608564
87.953446727
85.6790814021
83.5164535254
81.4662736271
79.5302209613
77.7103072668
76.0084907281
74.4265664408
72.9657302859
71.6269026458
70.4110990949
69.319231219
68.3521720877
67.5106736276
66.7955973716
66.208244303
65.7495393885
65.4210671268
65.222640488
65.099091352
65.2050220541
65.3113601947
65.5328411926
65.9512493322
66.5144772838
67.1891963868
67.9789103716
68.8892245911
69.9180791558
71.0627204687
72.3217823109
73.6935981398
75.1760123186
76.7668430166
78.4639653516
80.2651927371
82.1682400507
84.170607115
86.2695785285
88.4626953708
90.7478960344
93.1229508276
95.5852961778
98.1322849446
100.761257174
103.469555835
106.254540201
109.113545884
112.04366498
115.042034807
118.106452066
121.235709974
86.7232024939
83.8071917636
80.9972563499
78.2902140824
75.6973024779
73.2236224869
70.8702375846
68.6382551911
66.5298162637
64.5473248557
62.6932703231
60.9699453256
59.3786793198
57.9204873834
56.5966279776
55.4082173061
54.3561970838
53.4409733036
52.664316882
52.0271763153
51.5405608296
51.2086043126
51.3694730247
51.0889067766
50.8901227634
51.0579358562
51.2843478445
51.6926930021
52.3035347942
53.048613058
53.9028750667
54.8773692403
55.977907278
57.2008748658
58.5436178681
60.0052069292
61.5841340038
63.2783114596
65.0855132811
67.0033598751
69.0290828655
71.1595507355
73.3919827188
75.7241271056
78.1535110143
80.6772029258
83.2920807631
85.9949629928
88.7826751955
91.6520733659
94.6000165589
97.6231363302
100.717806826
103.880820206
107.109649854
110.40259171
71.6149016484
68.3427721651
65.2037220515
62.1775170989
59.2722346996
56.4952617906
53.84971302
51.3372086589
48.9599109266
46.7204972402
44.6222034531
42.6680931181
40.8597617869
39.1983924517
37.6854887721
36.3222549467
35.1135865333
34.0601652313
33.1648493201
32.4217906952
31.8293287902
31.3636578014
31.6055424657
31.1745737438
30.8637927932
31.1112156476
31.3588343986
31.6411451207
32.2280467992
33.0362655776
33.9617279231
35.0015255235
36.1810251468
37.5034788368
38.9611423552
40.5503678792
42.2698344265
44.1170649557
46.0888652434
48.1817735006
50.3919628253
52.7159454406
55.1509101087
57.6939198287
60.3414380431
63.0895982375
65.9344204518
68.8719051523
71.8981154439
75.0091323362
78.200898461
81.4691434256
84.8112354589
88.2223611419
91.6993869164
95.2383382526
52.8401397737
49.1494607618
45.6165732033
42.2088401881
38.9332278203
35.7987929718
32.8101270644
29.9694701137
27.2793646135
24.743053477
22.364793664
20.1486755033
18.0967207922
16.2103834462
14.4917590083
12.9419327534
11.5683960536
10.368168111
9.37160486004
8.58253281638
8.90884236821
7.79253703952
6.77336912246
6.43995483279
6.79618075759
7.15206438199
7.50807540143
7.86410116354
8.49320615879
9.37256842557
10.4001634779
11.5606619448
12.8788768857
14.3625695947
16.0030559154
17.7933423583
19.7304508142
21.8110032497
24.0301497097
26.3825719233
28.8638020545
31.4703249358
34.1984416245
37.0438139126
40.0016829355
43.0670494112
46.2348508051
49.5000728923
52.857513605
56.3020031658
59.8285280756
63.4322014434
67.1077263408
70.8529291958
74.6627840677
78.532478599
29.6155587588
25.3731339241
21.3224681196
17.4115282603
13.644697402
10.0336413058
6.58532862036
3.3028839022
0.189284171931
-2.75144669513
-5.51357401968
-8.09151779927
-10.4827230625
-12.6850927663
-14.6960792814
-16.5159753649
-18.1213307359
-19.5267963693
-20.6971598029
-21.6422935412
-21.188497704
-22.6521158535
-23.9218303022
-24.0798680366
-23.610123777
-23.1398490149
-22.6692490118
-22.1984991921
-21.7255735221
-20.8420824334
-19.6595735535
-18.3164178944
-16.8047045298
-15.0971465422
-13.200979938
-11.1299137976
-8.88966214669
-6.48453256773
-3.92115076632
-1.2057157217
1.65717247797
4.66277503907
7.80540310705
11.0787821345
14.4763214748
17.991324461
21.6171341745
25.3467780878
29.1730102946
33.089697606
37.0910271594
41.1712903111
45.3246737955
49.5452129702
53.8265025419
58.162738238
1.33024033568
-3.58621129105
-8.27132296104
-12.7993889621
-17.168170856
-21.3627226498
-25.3731918359
-29.1952605646
-32.8252276116
-36.2574286148
-39.4840784936
-42.4985665741
-45.2974249898
-47.8776545441
-50.2358896414
-52.3709111538
-54.2553608335
-55.9115547601
-57.2972025814
-58.4289051852
-57.9542397674
-59.78501624
-60.9255173979
-60.4193736944
-59.8178483305
-59.253005005
-58.7299922707
-58.2376579574
-57.7523346254
-56.9703955806
-55.5789877003
-53.882813498
-52.0108508828
-49.930417649
-47.6259215877
-45.1148901767
-42.410028023
-39.51764483
-36.4441433148
-33.1955012247
-29.7777867319
-26.1981597168
-22.4647129296
-18.5860914106
-14.5711180361
-10.4286108878
-6.16785809833
-1.79882314833
2.67031602605
7.23221391311
11.8798259776
16.6051251032
21.3997757883
26.2553870354
31.1636324062
36.116748431
-33.0121729265
-38.7901775535
-44.2885687238
-49.6120769619
-54.7619379033
-59.7187820131
-64.4688128407
-69.0061501855
-73.3261652295
-77.4205402103
-81.2785741498
-84.8929376087
-88.2590024736
-91.3714582685
-94.2248002222
-96.8064697355
-99.1166362626
-101.105603277
-102.760302362
-102.70170945
-105.07815623
-106.736487755
-106.396173233
-105.785582393
-105.175639794
-104.588046535
-104.053522218
-103.593415916
-103.034528786
-102.318877417
-100.603903667
-98.4532940531
-96.0998557808
-93.5049119396
-90.6360239087
-87.51267965
-84.1551309125
-80.5708877241
-76.7657522811
-72.7483576965
-68.5291352287
-64.11933629
-59.5308737711
-54.7760333318
-49.8670651359
-44.8171124387
-39.6397834606
-34.3467463611
-28.9484369582
-23.4550985987
-17.8779945951
-12.2288390563
-6.51924760029
-0.760566392633
5.03580478923
10.8593205574
-74.453462907
-81.2959161341
-87.8049430114
-94.1200715096
-100.245371788
-106.155410446
-111.830633426
-117.261826922
-122.441546517
-127.356779916
-131.991707484
-136.335949956
-140.381933503
-144.119598916
-147.53614458
-150.619923023
-153.364286526
-155.751126866
-157.771918182
-159.24534606
-161.270270404
-162.601358006
-161.813441027
-160.904413939
-160.054297533
-159.22756335
-158.513447772
-157.904402367
-157.137940559
-156.140190779
-153.842257948
-151.011980015
-147.936517459
-144.560720112
-140.845758108
-136.818682006
-132.503824108
-127.90871021
-123.042805687
-117.921170872
-112.560298941
-106.976977639
-101.188387164
-95.2113533453
-89.0641453081
-82.7655498139
-76.3322876925
-69.7787684677
-63.1198584168
-56.3717308875
-49.550960393
-42.6737870591
-35.7558018968
-28.8123494271
-21.8584256898
-14.9062953845
-124.588036636
-132.796520145
-140.610380931
-148.218113466
-155.630690796
-162.816713719
-169.750837857
-176.421216817
-182.817838324
-188.922171798
-194.711223892
-200.16928419
-205.283208852
-210.035922257
-214.41040689
-218.388757646
-221.960633736
-225.089646641
-227.759199451
-229.844883206
-232.115807882
-233.720065561
-232.845152231
-231.921898417
-230.964166193
-229.970908864
-229.129302696
-228.407279396
-227.412052384
-226.002916376
-222.942161789
-219.187622756
-215.090936349
-210.585460823
-205.629998634
-200.25898158
-194.501691143
-188.373459195
-181.894361643
-175.091371559
-167.992251873
-160.622790729
-153.008753472
-145.177925589
-137.158325878
-128.975094574
-120.650309419
-112.206742751
-103.669004771
-95.0618920397
-86.4092438648
-77.7336435019
-69.0567864226
-60.3993353152
-51.7794189641
-43.2118548178
-184.799871957
-194.734814599
-204.223116313
-213.504257899
-222.593704319
-231.451634975
-240.043773043
-248.352433087
-256.362029945
-264.044398364
-271.363102258
-278.290187081
-284.800781277
-290.864102092
-296.454382795
-301.539411993
-306.096416325
-310.089024129
-313.543308884
-316.382859213
-318.787997069
-318.789531062
-318.237337093
-317.488959717
-316.463044212
-315.165706413
-313.923718827
-312.727875649
-311.217222187
-308.604492707
-304.298000073
-299.132731828
-293.473202463
-287.257067879
-280.446351629
-273.087612426
-265.21677848
-256.864023607
-248.0676289
-238.867746379
-229.303289249
-219.414511147
-209.243157843
-198.831174737
-188.216848996
-177.43488205
-166.520834989
-155.512081123
-144.445657581
-133.356997296
-122.279589546
-111.244118893
-100.278759161
-89.4092626893
-78.6583434863
-68.0463245478
-257.266346558
-269.350122383
-280.948770242
-292.389825572
-303.70689196
-314.853102367
-325.785387183
-336.482695579
-346.927123142
-357.082373861
-366.898488233
-376.332773086
-385.341546619
-393.872442095
-401.873105191
-409.279804133
-416.050642051
-422.09200708
-427.402904955
-431.814870445
-435.442848673
-436.12177044
-436.883823658
-436.545310745
-435.681530246
-434.217958295
-432.570213201
-430.816555179
-428.564455265
-424.517564614
-418.223420698
-410.778605151
-402.584601892
-393.556774268
-383.65810673
-372.963569072
-361.553706223
-349.491460825
-336.843881276
-323.68147481
-310.074692262
-296.091420328
-281.796619384
-267.253272235
-252.520333916
-237.655827411
-222.718800793
-207.766227968
-192.851518796
-178.024731865
-163.331022354
-148.807968664
-134.48797001
-120.400467601
-106.573273662
-93.0341456642
-343.974153147
-359.118302095
-373.735036262
-388.238867021
-402.68499205
-417.010024505
-431.149824004
-445.070120827
-458.741632347
-472.115562684
-485.124802458
-497.707207658
-509.796135227
-521.308595954
-532.163825486
-542.284848839
-551.563287987
-559.90042782
-567.152203322
-573.299512361
-578.436030905
-578.441559395
-581.863818522
-582.886252725
-580.828638469
-578.174164314
-575.338953897
-572.476934537
-569.063123652
-563.120262746
-554.018638441
-543.286563568
-531.42971145
-518.28904674
-503.851977806
-488.270688173
-471.680081514
-454.188747252
-435.912864628
-416.976097508
-397.499054412
-377.590984875
-357.35605492
-336.900169306
-316.326818001
-295.734626094
-275.21584138
-254.853866436
-234.723414866
-214.893320332
-195.420944145
-176.355742739
-157.742071666
-139.618830466
-122.027254875
-105.064306324
-442.393847545
-460.7397038
-479.073489827
-497.817618561
-516.977739527
-536.451653184
-556.157211873
-576.054930582
-596.101313838
-616.208616986
-636.243017162
-656.06149899
-675.51728879
-694.444794594
-712.666043598
-730.012589597
-746.267112839
-761.293239841
-774.730667277
-786.447600281
-796.409265231
-804.892015496
-809.07507099
-807.952362669
-805.677910659
-802.689170701
-798.925579407
-794.440279425
-788.963813064
-778.979067924
-764.169487298
-746.799015666
-727.523570414
-706.177054201
-682.859326839
-657.885056375
-631.519793818
-603.991372007
-575.538777251
-546.394191715
-516.757954607
-486.805109931
-456.706435653
-426.632520594
-396.745577716
-367.192031169
-338.09580667
-309.562343423
-281.65238868
-254.58457979
-228.472504205
-203.358914984
-179.176588579
-155.743456127
-133.067393625
-111.166011152
-565.547096486
-588.698393971
-611.134307705
-634.061307032
-657.663085336
-681.830766642
-706.655437529
-732.265143047
-758.782435002
-786.162153197
-814.228674694
-842.792948549
-871.660292498
-900.582013354
-929.267985999
-957.347860507
-984.370903382
-1009.95229466
-1033.76912721
-1054.6429993
-1072.71632953
-1087.66637419
-1101.31560899
-1101.11432994
-1099.434424
-1096.29137546
-1092.01613946
-1086.37027183
-1078.17293451
-1064.17855649
-1041.27774764
-1013.34196169
-982.161897611
-947.716748635
-910.156446791
-870.032510273
-827.866456784
-784.092153878
-739.131534072
-693.400719455
-647.312182093
-601.263340098
-555.623932835
-510.708841133
-466.770982452
-424.075370299
-382.75390119
-342.811845353
-304.673487921
-268.308261464
-233.654478691
-200.371356909
-168.347550508
-137.873275135
-109.112423408
-82.1733405462
-668.953007028
-704.776458902
-744.13827165
-785.487070081
-827.944018984
-871.736667868
-917.375088783
-964.979033421
-1014.27355361
-1064.75839736
-1115.96126174
-1167.47104622
-1218.77110489
-1269.59755787
-1320.06222107
-1369.97198583
-1418.64811522
-1465.40984776
-1509.21140693
-1546.44196183
-1579.2081178
-1609.71871658
-1634.58307986
-1634.5796239
-1632.97597583
-1628.0189482
-1619.4590021
-1606.48054737
-1589.03740814
-1557.57083212
-1512.56732861
-1460.16504242
-1402.27663238
-1338.81905234
-1270.42127594
-1198.21012351
-1123.4963366
-1047.65211711
-972.175416384
-898.016110102
-825.435273938
-754.166445775
-684.158365866
-616.364223783
-551.861254933
-490.585654778
-432.502270446
-377.054579683
-324.026548773
-273.507729449
-225.846417125
-181.415781526
-140.315217112
-102.36621086
-67.3237577443
-34.9015786824
-778.116209531
-804.69909921
-847.466365412
-896.526947211
-943.647830767
-988.756432561
-1036.69432129
-1090.14160975
-1149.29094711
-1214.9927841
-1288.49936893
-1370.48999719
-1460.84905042
-1558.48731996
-1660.84126673
-1764.51644341
-1866.44949518
-1964.71629629
-2058.27029566
-2144.80686728
-2221.45407459
-2285.9967895
-2335.53395965
-2371.02498433
-2390.24089824
-2380.48003065
-2366.3827683
-2346.07237044
-2317.6747409
-2259.64303117
-2180.69504807
-2089.35812385
-1987.41877427
-1875.95893324
-1757.48815615
-1633.75211873
-1506.4671356
-1376.93935033
-1246.5948602
-1118.79836316
-995.40366891
-878.023945779
-768.562033633
-667.273310891
-573.438922297
-486.912294376
-406.308964291
-331.547481881
-262.589904289
-199.300651512
-141.398129397
-88.6860466321
-40.7973862961
2.66596283729
42.0296400694
77.5914054036
-731.241631831
-749.599660926
-806.424452362
-872.249741311
-940.391654625
-1016.71512395
-1102.83077596
-1196.8043393
-1296.59181045
-1403.50156696
-1518.47074609
-1640.97452946
-1769.29684944
-1902.71412786
-2041.45965144
-2184.89810485
-2330.29554957
-2474.45134728
-2614.40399082
-2746.44591742
-2867.20986082
-2973.77543041
-3063.50158242
-3133.58779997
-3181.57051399
-3205.97920762
-3192.33913484
-3170.96133647
-3118.47964171
-3029.30154725
-2912.27957252
-2772.83633401
-2613.21402031
-2438.08137033
-2251.13463738
-2057.95904146
-1864.76841659
-1676.17155709
-1495.17386677
-1319.96389952
-1151.42480497
-992.005005646
-842.872376906
-705.185822725
-579.045051373
-463.974844818
-360.174847134
-267.067772439
-183.706681848
-109.093079842
-42.2761477295
17.3750452045
70.4791937731
117.595330113
159.251836534
195.95590847
673.602473712
674.705645488
677.305874793
681.199604425
686.339373027
692.833377861
700.809578233
710.368245661
721.59886148
734.589113113
749.404276768
766.044726578
784.376802466
804.027105866
824.161444275
843.2228398
858.007331964
863.664141357
847.249182116
795.031275037
678.703765288
679.860923041
682.635846148
686.809619602
692.336278233
699.345641637
707.9941211
718.416314486
730.748127292
745.141514166
761.749444887
780.691475481
801.996195536
825.509735316
850.692137198
876.365452656
899.788745204
916.541780261
914.066656608
879.674205047
683.469699636
684.664158495
687.593902281
692.02796879
697.915973811
705.406277102
714.683643135
725.917176411
739.28916556
755.016603667
773.343091388
794.514229324
818.735364707
846.100245841
876.420776894
908.998596071
941.790163973
971.174999633
986.072282596
975.104166915
687.876457283
689.11192264
692.185700602
696.858699354
703.077690188
711.00838637
720.862898539
732.84377342
747.178155469
764.146568926
784.082630119
807.359481536
834.365555637
865.458140658
900.839538092
940.366061626
982.881918417
1025.84414147
1060.55177385
1077.07939623
691.909205949
693.185630457
696.387457113
701.271100104
707.783969103
716.107435427
726.478157351
739.129570025
754.330684645
772.421863767
793.822678458
819.030039118
848.613515179
883.197012394
923.389872089
969.645442399
1021.81464991
1078.6201997
1134.52266795
1180.81089722
695.552886985
696.865645334
700.177642023
705.242148249
712.008858562
720.67254517
731.490903809
744.724773756
760.68074148
779.753175398
802.440033379
829.352616265
861.230501182
898.952379133
943.524706455
995.998695167
1057.2555624
1127.37370608
1204.21972523
1280.60175637
698.793444373
700.135813564
703.538834871
708.752678909
715.729545642
724.675366088
735.865175821
749.582865721
766.166902991
786.057683056
809.82054846
838.166257958