/*--------------------------------*- C++ -*----------------------------------*\
  =========                 |
  \\      /  F ield         | OpenFOAM: The Open Source CFD Toolbox
   \\    /   O peration     | Website:  https://openfoam.org
    \\  /    A nd           | Version:  7
     \\/     M anipulation  |
\*---------------------------------------------------------------------------*/
FoamFile
{
    version     2.0;
    format      ascii;
    class       surfaceScalarField;
    location    "1";
    object      phi;
}
// * * * * * * * * * * * * * * * * * * * * * * * * * * * * * * * * * * * * * //

dimensions      [0 3 -1 0 0 0 0];

internalField   nonuniform List<scalar> 
14796
(
12.8403293771
-0.0185655621732
12.8597616464
-0.0220205837622
12.883332593
-0.0254902872591
12.9111341381
-0.0290572666971
12.9432812151
-0.0327417480617
12.9799260635
-0.0365754926571
13.0212377895
-0.0405669399656
13.067390969
-0.0447113707503
13.1185707138
-0.0490080970916
13.1749642865
-0.053449365819
13.236740581
-0.0580165564646
13.3040579674
-0.0627030094761
13.3770620375
-0.0674863066445
13.4559814717
-0.0723725076693
13.541015209
-0.0773806829364
13.6320522395
-0.082376400045
13.7289027297
-0.0872248617404
13.8314040115
-0.0918516640991
13.9393019866
-0.0961096500755
-0.0944513495931
14.0471798367
12.8391951542
-0.0359992364611
12.8576110684
-0.043073731812
12.8801293756
-0.0500130636119
12.9068696683
-0.0571717351259
12.9379441241
-0.0645694935875
12.9735016577
-0.0722699933373
13.0137005454
-0.0802816669603
13.0586908768
-0.0885810572218
13.1086561184
-0.0971864817107
13.1637990892
-0.106086359482
13.2242590891
-0.115206459406
13.2901786437
-0.12457596152
13.3617250877
-0.134192687989
13.4391161997
-0.14401350732
13.5225304371
-0.154046843719
13.6118371565
-0.164032781566
13.7068344753
-0.173725390466
13.8073380375
-0.18298311273
13.9130382564
-0.191508253617
-0.188533470151
14.0188311033
12.8382359164
-0.0524522879533
12.8555453911
-0.0630682632028
12.8769293591
-0.073459694964
12.9024980031
-0.084175559062
12.9323640312
-0.0952766946469
12.9666775142
-0.106849154178
13.0055410445
-0.118842037274
13.0490922418
-0.131260502663
13.0975281626
-0.144171570467
13.1510169306
-0.157514726327
13.2097142265
-0.171225357544
13.273873706
-0.18544541644
13.3436728333
-0.200107017123
13.419238456
-0.214982339789
13.5007196181
-0.230046976046
13.5879970577
-0.245018661926
13.680861126
-0.259578818335
13.7791083365
-0.273511807748
13.8824608208
-0.286441925402
-0.283317869928
13.9868537153
12.8369678224
-0.0675406934854
12.8529736656
-0.0816573586485
12.8730169952
-0.0954894334846
12.8972155733
-0.109750640391
12.9256845579
-0.124544014668
12.9585118043
-0.139922823694
12.9958100861
-0.155854740952
13.0377649171
-0.172420629342
13.0845455619
-0.189683788053
13.1363208338
-0.207570917841
13.193434124
-0.226165619048
13.256204238
-0.24559441888
13.3245603822
-0.265457244701
13.3985885818
-0.285484023317
13.4786251361
-0.305817452624
13.5645955144
-0.326035709725
13.6562513463
-0.345648402442
13.7533706218
-0.364446461195
13.8556066073
-0.381954969662
-0.379169964038
13.9591863722
12.8355003473
-0.0811131419291
12.8501102988
-0.0987713911382
12.8687425005
-0.116075380261
12.8914750709
-0.133891475217
12.9183903021
-0.152340314617
12.9495809559
-0.171493931912
12.9852474789
-0.191427728843
13.0256114238
-0.212247798292
13.0708636385
-0.234001036298
13.1212861905
-0.256684947063
13.1772098658
-0.28040467444
13.2387615594
-0.305081908534
13.3059041594
-0.330202004508
13.3789155301
-0.355762738954
13.4581238745
-0.381780289512
13.5434419334
-0.407477023254
13.6347521203
-0.432531401776
13.7318366945
-0.45667800742
13.8343258417
-0.479193648391
-0.477912608862
13.9391813521
12.8340482291
-0.0932527327685
12.8471460352
-0.114430089744
12.8642065072
-0.13517521713
12.885294402
-0.156527578738
12.9105013218
-0.178632443311
12.9399882459
-0.201631533325
12.9739761328
-0.225659101341
13.012699482
-0.250833877025
13.0564281532
-0.277235560723
13.1054858733
-0.30490083473
13.1600839935
-0.333833015391
13.2203888743
-0.363868923509
13.2867404681
-0.394701467099
13.3593618036
-0.426311028881
13.4382470933
-0.458282215063
13.5235736718
-0.489963618607
13.6154948795
-0.521138723734
13.7136657015
-0.551084377752
13.8176810434
-0.579121070448
-0.580472660238
13.9250077529
12.8325513118
-0.103866332369
12.8440744197
-0.128541792253
12.8594863356
-0.15270311497
12.8788586582
-0.177578515441
12.9023136291
-0.203360707602
12.9300323836
-0.230248619453
12.9622514396
-0.258430292667
12.9992493794
-0.288064541996
13.0413403783
-0.319263291323
13.0888594744
-0.352077974237
13.1421199531
-0.386484371886
13.2014864473
-0.422352666584
13.2673673177
-0.459456370935
13.3398931392
-0.497521509473
13.4191624875
-0.536039321472
13.5054787486
-0.574558059129
13.5988289346
-0.612455535956
13.6990629284
-0.648887045843
13.8060306896
-0.68328686458
-0.688548845742
13.9176979781
12.831041009
-0.112917692087
12.8409432037
-0.141038814543
12.854629102
-0.168565536787
12.8721801015
-0.196923274371
12.8937408585
-0.226365988335
12.9195217146
-0.257156875615
12.9497970858
-0.289546762547
12.9848987666
-0.323750305324
13.025206726
-0.359925446342
13.0711358912
-0.39815566969
13.1231197831
-0.438432449064
13.1816057056
-0.480637375661
13.2470234439
-0.524532724871
13.3197132599
-0.56975536858
13.4000266532
-0.615789438973
13.4881484119
-0.662002018082
13.5840356798
-0.707548804491
13.6876896911
-0.751622782337
13.7987985617
-0.793281033954
-0.803994344667
13.9160870378
12.8295485117
-0.120410673246
12.8377917358
-0.151866738742
12.8496651123
-0.182659359466
12.8652617731
-0.214411120628
12.884750411
-0.247450658315
12.9083779608
-0.282118905486
12.9364695618
-0.318744445422
12.9694244109
-0.357615414651
13.0077073505
-0.398954568679
13.051836518
-0.442897618566
13.1023677501
-0.489472696237
13.1598761196
-0.538579956183
13.2249277331
-0.58997292457
13.2980442859
-0.643241808942
13.3796822947
-0.697798818139
13.4701685
-0.752874370859
13.5697300571
-0.807518125452
13.6782796926
-0.860607859521
13.7954178387
-0.91094248529
-0.929214998722
13.9204395789
12.8281089154
-0.126387868772
12.8346519273
-0.160969200167
12.8446120805
-0.194867431099
12.8580906911
-0.22985909561
12.8752820072
-0.266366883248
12.8964745728
-0.304826795369
12.9220529836
-0.345664091902
12.9524963739
-0.389261954376
12.9883714336
-0.435931063145
13.0303207428
-0.485883257892
13.079047434
-0.539207373454
13.1352945644
-0.595843548483
13.1998162864
-0.655556167358
13.2733410877
-0.717908388979
13.3565292057
-0.782241294416
13.4499180054
-0.847659011136
13.553868895
-0.913031981021
13.6684790678
-0.976972059467
13.793636042
-1.03807201776
-1.06639467075
13.9289852003
12.8267207095
-0.130897138873
12.8315394533
-0.168315065185
12.8394744374
-0.205063157765
12.8506357214
-0.243047607338
12.8652457555
-0.282805159243
12.8836376041
-0.324884064928
12.9062607892
-0.369827641507
12.9336840082
-0.418139797956
12.9665904341
-0.470247170979
13.0057680994
-0.526467844368
13.0520971861
-0.586984052486
13.1065305224
-0.651809608947
13.170063828
-0.720752409339
13.2436946163
-0.793377314977
13.3283686415
-0.868972675888
13.4249122362
-0.946521410849
13.5339519324
-1.02469150671
13.6558184969
-1.10179516841
13.7904998665
-1.17607801242
-1.217650496
13.9383973901
12.8253623058
-0.13396204855
12.8284653133
-0.17390312145
12.834251223
-0.21310652903
12.8428562147
-0.253715344131
12.8545332271
-0.296385038548
12.86965909
-0.341790170705
12.888750659
-0.390616623424
12.912473075
-0.443519163086
12.941635109
-0.501070615358
12.9771861716
-0.563732209725
13.0202119566
-0.631824859926
13.0719190276
-0.705485440188
13.1336062412
-0.784615978856
13.2066217467
-0.868831925628
13.2923012471
-0.957409743273
13.3918834951
-1.04923502647
13.5064002915
-1.14276719214
13.6365407802
-1.23597238033
13.782537894
-1.32663625205
-1.38541404243
13.9455067387
12.8241127642
-0.135684952409
12.8254637131
-0.177683319698
12.8289447054
-0.218823820236
12.8347129283
-0.261557500809
12.8430380539
-0.30665601102
12.8543306666
-0.354938394931
12.8691664853
-0.407259237364
12.8883099136
-0.46446558728
12.9126969401
-0.527305485372
12.9434465847
-0.596426830249
12.981871983
-0.672348249453
13.0294743591
-0.755398182352
13.0879216691
-0.845648620095
13.1590103965
-0.942846353418
13.2446013957
-1.04633439647
13.3465204446
-1.15496454023
13.466412493
-1.26701537962
13.6055488597
-1.38007770314
13.7646150852
-1.49134984368
-1.57249419844
13.9456104701
12.8230696388
-0.136274122274
12.8225708858
-0.179551265154
12.8235782131
-0.22202995582
12.8261882755
-0.266227645392
12.830670984
-0.313093733159
12.8374622612
-0.363617728861
12.8471851808
-0.418845850777
12.8606792637
-0.479846160864
12.8789850058
-0.547572344263
12.9033887675
-0.622922931692
12.9354419342
-0.706686414269
12.976970865
-0.799471054132
13.0300749739
-0.901626653843
13.0971063172
-1.0131571503
13.1806158413
-1.13360846565
13.2832510728
-1.26193218261
13.4075798443
-1.39632919177
13.5558341476
-1.53405471545
13.7295263052
-1.67158782835
-1.78190390381
13.9317549952
12.8219444341
-0.13565056732
12.8198025459
-0.17970694228
12.8182103632
-0.222583028912
12.8173229986
-0.267360940415
12.8174571398
-0.315156736271
12.8189287679
-0.366964352684
12.822553424
-0.424334832511
12.8291396166
-0.488334652556
12.8397844866
-0.560211781623
12.8559138589
-0.641199302057
12.8792951268
-0.732433357663
12.9120795696
-0.834912373648
12.9568379024
-0.949411992025
13.0165790274
-1.07638072969
13.0947295926
-1.21578840154
13.1950523719
-1.36692823917
13.3214575866
-1.52815293852
13.4777139578
-1.69657871879
13.6669146188
-1.86801119221
-2.0171787107
13.8941427294
12.8213258983
-0.134326546023
12.8171625496
-0.177766469993
12.8126662738
-0.220162960703
12.8078764992
-0.264526925159
12.8029804219
-0.312127499737
12.7986736662
-0.364472634867
12.7952039349
-0.422671373845
12.7934506418
-0.48842814307
12.7945994554
-0.5633037167
12.8001400308
-0.648842057017
12.8119852157
-0.746609781801
12.8325522516
-0.858117417164
12.8648647927
-0.984755151974
12.9126428347
-1.12767633729
12.9803619894
-1.28761505997
13.0732562855
-1.46463138035
13.197159324
-1.65768499998
13.358197152
-1.86418988211
13.5619586485
-2.07941813162
-2.2808496028
13.8169829206
12.8206100737
-0.132213468321
12.8147334823
-0.17403414725
12.8073175525
-0.214739711091
12.7984330578
-0.257508914539
12.7882443196
-0.30370852929
12.7769262154
-0.35486291084
12.7651627293
-0.412596762137
12.7536387352
-0.478622374039
12.743356674
-0.554825425568
12.7357415509
-0.643180217897
12.7326936768
-0.745737010538
12.7367569084
-0.864658905174
12.7512839045
-1.00215473658
12.7806400949
-1.16040135867
12.8303988853
-1.341352426
12.9075824447
-1.54652893505
13.0207138557
-1.77640344768
13.1799302764
-2.03001390442
13.3952778156
-2.30254751445
-2.57528718233
13.6807658014
12.8201540466
-0.129583009789
12.8125616874
-0.168504404214
12.8021494103
-0.206222642941
12.7889193308
-0.246034472254
12.7729319217
-0.289361562338
12.7543343483
-0.337822605069
12.733434596
-0.393210644974
12.7107632725
-0.45746831956
12.6871041866
-0.532742455303
12.6636134388
-0.621388036524
12.6419836307
-0.726000920366
12.6246093536
-0.84945625773
12.6148577856
-0.994946763968
12.6174124688
-1.1659784923
12.6386900193
-1.36625288988
12.6874338636
-1.59963463427
12.7750087322
-1.869236456
12.9171275393
-2.17846370309
13.1320924354
-2.52510804244
-2.90471624246
13.4525878684
12.8199231842
-0.126687279789
12.8107987017
-0.161390127347
12.7975239135
-0.194753795189
12.7799982612
-0.23013979956
12.7581257321
-0.268973527473
12.7318544267
-0.312917647347
12.7012244884
-0.363865195712
12.6664210888
-0.423912215599
12.6278147521
-0.495399058141
12.5860655697
-0.58097882365
12.5422814471
-0.683704560413
12.4982521037
-0.807143794724
12.4567879376
-0.955522044056
12.4222390237
-1.13389925389
12.401176888
-1.34821546837
12.4034321142
-1.60561582733
12.4427259985
-1.91313148138
12.5389146858
-2.28033917634
12.7141689401
-2.7073910683
-3.22298759071
13.0238553896
12.8195816688
-0.123441389378
12.8090775469
-0.152896015342
12.7932285212
-0.180686995879
12.7717330143
-0.210190554706
12.7443485847
-0.242933551964
12.7107895898
-0.280539015566
12.6707664748
-0.324882377928
12.6240088505
-0.378090290949
12.570300365
-0.442563927383
12.5095473383
-0.521086187852
12.4418993967
-0.616961437547
12.3679506761
-0.734210874902
12.2890718116
-0.877847085951
12.2079549204
-1.05426389779
12.1295825997
-1.27170692105
12.0626965941
-1.54109982351
12.0226919711
-1.87615429843
12.0350478136
-2.29657478379
12.1388707245
-2.81622708687
12.3575417261
-3.44852934519
14.1102142213
-0.0567658542289
14.1692960285
-0.0519683208721
14.2294451556
-0.0526961463406
14.2907074253
-0.0533760119012
14.3529533345
-0.0539725814086
14.416050758
-0.0544676344886
14.4799181488
-0.0548484405768
14.544469105
-0.055114533869
14.6096130208
-0.055265223705
14.6752551166
-0.0552990890025
14.7412967227
-0.0552144014003
14.8076357248
-0.0550094466909
14.8741669464
-0.0546825963433
14.940782396
-0.0542322654816
15.0073714347
-0.0536568723846
15.0738203439
-0.0529541775042
15.1400111609
-0.052120315319
15.2060675171
-0.0512853461352
15.2716818605
-0.0501576683153
-0.0424436040477
15.3305557424
14.0803772902
-0.112930438557
14.1383473957
-0.103800616435
14.1972336001
-0.105143503764
14.2571474385
-0.106424670792
14.3179756128
-0.107545000825
14.3795772476
-0.108464017118
14.4418690384
-0.109160934635
14.504761747
-0.109633427924
14.5681609331
-0.109878169485
14.6319684642
-0.109891667208
14.696083416
-0.109670484086
14.7604027579
-0.109211614372
14.8248223035
-0.108513037202
14.8892380286
-0.107574269375
14.9535478843
-0.106397133392
15.0176546359
-0.104986629464
15.0814704287
-0.103352583715
15.1450023889
-0.101614637397
15.2080237983
-0.0993181358436
-0.0845559167967
15.2650010743
14.0463215654
-0.16808353723
14.102818979
-0.155316803261
14.1601881291
-0.157377520217
14.2184222715
-0.159217836846
14.2774879602
-0.160785598525
14.3372640659
-0.162040799914
14.3976533138
-0.162977776757
14.4585564897
-0.16358869485
14.5198713868
-0.163864628246
14.5814920344
-0.163796269188
14.6433089458
-0.163374976188
14.7052096479
-0.162593275134
14.7670789567
-0.161445021331
14.8287990203
-0.159925565566
14.8902490156
-0.158031979383
14.9513043963
-0.155763182478
15.0118352825
-0.153120249867
15.0716577428
-0.150105987061
15.1307868314
-0.146522908492
-0.125190515656
15.1843111351
14.0175420192
-0.223104741567
14.0737725817
-0.20759678986
14.1307598668
-0.210354526358
14.1885158389
-0.212796914078
14.2470128018
-0.214778530117
14.3061819047
-0.216335933212
14.3659207749
-0.217490099733
14.4261219939
-0.218219802115
14.4866738293
-0.218505952689
14.547461466
-0.218331875191
14.6083674314
-0.217682966548
14.6692718178
-0.216546601881
14.7300526786
-0.214912173348
14.7905865062
-0.212771062544
14.8507486852
-0.210116534509
14.9104138634
-0.206943368726
14.9694564284
-0.203247655399
15.0277507206
-0.19902503817
15.0853852496
-0.194345894935
-0.166963769305
15.1378374221
13.9973413409
-0.278757923779
14.0537219093
-0.260888276825
14.1110761026
-0.264569569454
14.169156533
-0.267655141064
14.2279514503
-0.270132007274
14.2874200066
-0.272072351894
14.3474472375
-0.273501297376
14.407915079
-0.274391502561
14.4687022759
-0.274717619158
14.5296840265
-0.274456673612
14.5907323231
-0.273588488073
14.6517165576
-0.272095849669
14.7125039686
-0.269964380262
14.7729600023
-0.2671824296
14.8329487
-0.263741064769
14.8923331044
-0.25963389531
14.9509758431
-0.254857439623
15.0087403512
-0.249410659755
15.0655517474
-0.243448135734
-0.210035142509
15.117150522
13.9836973894
-0.335615729674
14.0413727482
-0.316198256319
14.1000594254
-0.320880935967
14.1595375642
-0.324761726005
14.2197687957
-0.327873031395
14.2807075273
-0.330317027791
14.3422299422
-0.332125693976
14.4042060598
-0.333263941058
14.4665015265
-0.333700124547
14.5289786627
-0.333406133566
14.5914970281
-0.332357433102
14.6539139229
-0.33053321672
14.7160849628
-0.327916383523
14.7778646499
-0.324493453943
14.8391069507
-0.320254598753
14.8996658806
-0.315193498638
14.959396357
-0.309307992197
15.0181550632
-0.302599238657
15.0758772385
-0.295318457428
-0.256051820293
15.1285319515
13.9779058147
-0.394530848825
14.0377180671
-0.374279276648
14.0987672295
-0.380271817432
14.1606953113
-0.385126203658
14.2234666394
-0.389052248574
14.2870220461
-0.392161420884
14.3512189038
-0.394489231543
14.4159108585
-0.395994086117
14.4809481339
-0.396638718852
14.5461774508
-0.396389866135
14.6114425846
-0.395218764015
14.6765851768
-0.393101460972
14.7414453547
-0.390018572878
14.8058620502
-0.385954902913
14.8696731215
-0.380899308515
14.9327152109
-0.374844342715
14.9948234881
-0.367786834958
15.0558308485
-0.359726038238
15.1156554878
-0.351018580573
-0.305882349477
15.1703626937
13.9786372763
-0.456573111444
14.0418380701
-0.43641773006
14.1063499594
-0.44375053458
14.171949971
-0.44987722941
14.2385270788
-0.454879579735
14.3059937376
-0.458864196539
14.374196161
-0.461896745762
14.4429708055
-0.46392678178
14.5121486737
-0.464911355947
14.5815569138
-0.464812935614
14.651020253
-0.463599842535
14.7203620369
-0.461246164367
14.7894050394
-0.45773131068
14.8579719797
-0.453039405572
14.9258856365
-0.447158851969
14.9929684989
-0.440081661849
15.0590422428
-0.431804109758
15.12392621
-0.422323715202
15.187535431
-0.412115824062
-0.361060459198
15.2459634296
13.9860487734
-0.522795158997
14.0534006217
-0.503801281274
14.1224418372
-0.512706033074
14.1932062212
-0.52063705049
14.2650172511
-0.526834141767
14.3377817441
-0.531853287789
14.4114478342
-0.535835075502
14.4858040716
-0.538581210216
14.5606522733
-0.54006159171
14.6357929296
-0.540237236736
14.7110266322
-0.539076599651
14.7861549092
-0.536554267069
14.8609812997
-0.532650741041
14.9353120915
-0.527351578577
15.0089563248
-0.520646270619
15.0817248921
-0.51252669317
15.1534288809
-0.502987039175
15.2238753204
-0.492017626926
15.2929674451
-0.480208729742
-0.423016025195
15.3567108503
13.9993289366
-0.59469566102
14.0722227562
-0.577888127538
14.1466519951
-0.58827831222
14.2231728788
-0.598324414932
14.3015677018
-0.606519441067
14.3815687253
-0.613230304372
14.4625179597
-0.618205066992
14.5441742573
-0.621720080833
14.6264441455
-0.623875627421
14.7090873052
-0.624460343161
14.7918740659
-0.623454441726
14.8745788697
-0.620836328595
14.9569841626
-0.6165930471
15.0388822504
-0.61071786945
15.1200756316
-0.603207702555
15.200376887
-0.594060908753
15.2796095652
-0.583277905183
15.3576091584
-0.570853825491
15.4343395884
-0.557521815739
-0.494140731551
15.505711572
14.0151678507
-0.673791352115
14.0955324718
-0.660331164211
14.1779505573
-0.672867066406
14.2621858658
-0.68483988716
14.3484089624
-0.695169694652
14.4364964284
-0.703890263491
14.5264037837
-0.7107859489
14.6177109265
-0.715781920096
14.7095808534
-0.718581162994
14.8017408086
-0.719526628038
14.8941155787
-0.718791515904
14.9864216383
-0.716139415423
15.0784091425
-0.711587265853
15.1698535496
-0.705150028769
15.2605499714
-0.696841151877
15.3503080807
-0.686670137075
15.438947832
-0.674643293841
15.5262933941
-0.660752891921
15.6122762573
-0.645853941737
-0.576021617978
15.6926116403
14.0299989486
-0.761347063531
14.1194406094
-0.752686614519
14.2121342676
-0.768622577541
14.3071972233
-0.783111020885
14.4042561514
-0.795611941845
14.503026473
-0.80626356097
14.6036017088
-0.815169260511
14.7058330686
-0.821978229239
14.8093830479
-0.826228231275
14.9136695031
-0.828028625077
15.0180882807
-0.827532312294
15.1223179011
-0.824782267297
15.2261404701
-0.819891037168
15.3293508716
-0.812879406077
15.4317644884
-0.803780131014
15.5332113751
-0.792617114036
15.6335268499
-0.779402460422
15.7325322519
-0.764115671549
15.8300950788
-0.74768614188
-0.67121346512
15.9216847125
14.03982666
-0.859287232691
14.1406088696
-0.857143865029
14.2454925137
-0.877389088211
14.3532744424
-0.894984851153
14.4645237862
-0.911166785862
14.5780811779
-0.924350209116
14.6930806437
-0.934931054534
14.8091294106
-0.943024276318
14.9264974404
-0.948820610984
15.0452146767
-0.952178096739
15.1645268571
-0.952467955469
15.2833311068
-0.94939215558
15.4013269909
-0.94383536848
15.5186736473
-0.936262198705
15.6352489472
-0.926442785968
15.7509692192
-0.914441711615
15.8657669868
-0.900288093829
15.9795640865
-0.883954689367
16.0922839393
-0.866411472465
-0.783493830073
16.1991574699
14.037971804
-0.969781793717
14.1527586162
-0.976258841808
14.2728132163
-1.00203278721
14.397335722
-1.0243611558
14.525852331
-1.04480665786
14.6574798398
-1.06137298284
14.7913909839
-1.07450829263
14.9265874484
-1.08415383341
15.06217548
-1.0906031285
15.1978298491
-1.09426989688
15.333939553
-1.09526291454
15.4703772842
-1.09285965322
15.6059315304
-1.08676000563
15.7402458633
-1.07811549
15.8736928479
-1.06749855009
16.0064153298
-1.05481350321
16.1386293018
-1.04013654766
16.2705510048
-1.02341868151
16.4022531679
-1.00549592644
-0.916408747466
16.5286150941
14.0153949651
-1.09574093728
14.1479264576
-1.11364691829
14.2875864103
-1.14686099403
14.4337131571
-1.17597598112
14.5848093824
-1.20172000446
14.7399340142
-1.22265155047
14.897805383
-1.23887581711
15.057164902
-1.25035328081
15.2166446529
-1.25726643572
15.3748444445
-1.25999762161
15.5313565828
-1.2596030952
15.6870240008
-1.2566481069
15.8419888823
-1.25020231701
15.9953999216
-1.24031783934
16.1472185383
-1.22834179062
16.2982066359
-1.21501032275
16.4493144113
-1.20054539308
16.6016465381
-1.18501334557
16.755986662
-1.16892464671
-1.07608891032
16.9074948205
13.9570706769
-1.24082206134
14.1125600371
-1.27437597635
14.2785010491
-1.31839907718
14.4537843189
-1.35722670969
14.6361103733
-1.39039911379
14.823732102
-1.41702816733
15.0144235578
-1.43674159562
15.2058814274
-1.44942450187
15.3958108765
-1.45527128574
15.582111662
-1.45486608347
15.7629006851
-1.44940894099
15.9377513433
-1.44085633994
16.1090080021
-1.43118450184
16.278521065
-1.41996395406
16.4464750488
-1.40680102728
16.6145985806
-1.39402122046
16.7854882606
-1.38266854842
16.9612987717
-1.37227301537
17.1431192912
-1.36221192772
-1.26895038438
17.3253035391
13.8440333362
-1.40921198415
14.0289395668
-1.46474157858
14.2299792577
-1.52529072462
14.4445789181
-1.57808548342
14.6698731108
-1.62237728986
14.9014294568
-1.65571365976
15.1347849372
-1.67769406572
15.3655583066
-1.68828712321
15.5899367635
-1.68825634138
15.8054004141
-1.67947784516
16.0113146679
-1.66503353077
16.2085888532
-1.64840314911
16.399029634
-1.63248940279
16.5863389537
-1.61873648875
16.7733973503
-1.60585194378
16.9622191238
-1.59537076086
17.1568787637
-1.59035293363
17.3616247321
-1.59036167834
17.5819207722
-1.59621549852
-1.51531498123
17.8148480742
13.6446287344
-1.60634485146
13.8658802988
-1.69150962428
14.1099835754
-1.77532491675
14.3754969177
-1.84995407862
14.6575650417
-1.91124181549
14.9485129292
-1.95392242081
15.2381195431
-1.97505482084
15.5172487007
-1.97569617794
15.7812327794
-1.96107956228
16.0324509069
-1.94012498463
16.2753172124
-1.91794167427
16.5131264225
-1.89687754159
16.7427591118
-1.87345607518
16.9607946671
-1.84884491225
17.1666345615
-1.82444340538
17.3620537845
-1.8042146151
17.5511083906
-1.79377066945
17.7381814265
-1.79255285504
17.9371867327
-1.81058390719
-1.76160941984
18.1685111528
13.2405570648
-1.82797846085
13.5055771571
-1.96199686656
13.8146302257
-2.09025849841
14.161374772
-2.2029844174
14.5367463532
-2.29331853949
14.9301618952
-2.35449147184
15.3313723103
-2.38390804162
15.7327727757
-2.38527977042
16.126327683
-2.36341620313
16.4921384921
-2.31537450272
16.7982209628
-2.23416983971
17.0267458163
-2.13629290071
17.1895434213
-2.04791594055
17.3058069981
-1.97757078756
17.4067766621
-1.93864099932
17.5182178249
-1.92956156428
17.6391949939
-1.92971224711
17.753077997
-1.92274920112
17.8283482498
-1.90285311116
-1.82585031939
17.8761883202
12.59457149
-2.06926026565
12.8975184856
-2.26931423725
13.3035940171
-2.5009312016
13.8007690305
-2.70500875978
14.3569704121
-2.8546496938
14.9544269007
-2.95739301798
15.5822042965
-3.01749138634
16.2145673906
-3.02387180494
16.7914917333
-2.9470791372
17.2264840955
-2.75770879754
17.4546907511
-2.47039632112
17.439552686
-2.12992017972
17.1653216869
-1.78327504774
16.6453289243
-1.46809254797
15.898314802
-1.2031885375
14.9409114786
-0.984663961385
13.7999149261
-0.802019738143
12.5169553976
-0.654326689858
11.1680649211
-0.570210425189
9.81729925724
-0.492281248115
15.3687861181
-0.0306164296284
15.400986883
-0.0238139530958
15.4328781092
-0.0233032807909
15.4647094551
-0.022909287032
15.4966442052
-0.0225423309522
15.5285935037
-0.0222130955627
15.5604382615
-0.0219079239715
15.5921666767
-0.0216143221682
15.623745247
-0.0213230381541
15.6550805202
-0.0210197380495
15.6858929715
-0.0206050279593
15.7159346845
-0.0200285994861
15.7453074397
-0.0194291188146
15.7741352516
-0.0188448990471
15.8023940711
-0.0182196226421
15.8299345103
-0.0175504346385
15.8566335159
-0.0168263052054
15.8826595747
-0.0160593588301
15.9081673617
-0.0152798276008
15.9331665316
-0.014506406915
15.9576701283
-0.0137425303633
15.9816927362
-0.0129900077043
16.0052515887
-0.0122517455296
16.0283532509
-0.0115171638629
16.0509826947
-0.0107646826103
16.0731191555
-0.00998848882041
16.0947370565
-0.00918358885941
16.1158114669
-0.00835031814385
16.1363177496
-0.0074884989145
16.1563126771
-0.00665937873305
16.1760834399
-0.00605822097438
16.1954204422
-0.00540397640854
16.2137994536
-0.00443793766919
16.2313131856
-0.0033762389356
16.2481340572
-0.00230322552303
16.2642025926
-0.00122930573835
16.2794773486
-0.000148747845207
16.2939531587
0.000938153400094
16.3076248493
0.00203130280044
16.3204869621
0.00313039247318
16.3325339549
0.00423521186183
16.3437601645
0.00534573063121
16.3542448695
0.0063985769733
16.3643263899
0.00717477800401
16.3739401098
0.00796586731844
16.382537222
0.00907534924375
16.3899446362
0.010329892414
16.3963774904
0.0116372563404
16.4019767258
0.0129308115521
16.4066836529
0.0142139181847
16.4104568222
0.0154950226839
16.4132936975
0.0167744208263
16.4151923333
0.0180523595133
16.4163153637
0.0191746719602
16.4170043129
0.0199927472744
0.0209768346292
15.301314822
-0.0601011747947
15.332009591
-0.0469450429957
15.36239951
-0.0459566466718
15.3927102332
-0.0451816090795
15.4231136907
-0.0444799596312
15.4535228827
-0.0438614271348
15.483815978
-0.0432861763883
15.5139825799
-0.0427306325173
15.5439912722
-0.0421779950417
15.573749284
-0.0416000249853
15.6029269613
-0.0407421189721
15.6312913609
-0.0395617109662
15.659021291
-0.0384028451192
15.6862626825
-0.0372953957868
15.7130121465
-0.0361281484603
15.7391329766
-0.0348852272818
15.7644926012
-0.0335237661866
15.7892210918
-0.0320444895982
15.8134296009
-0.0305014149045
15.837081745
-0.0289263407264
15.8601402784
-0.0273222201663
15.8825666114
-0.0256899731844
15.9043208015
-0.0240315420367
15.9253824526
-0.0223561993895
15.9457346902
-0.0206462543979
15.9653772815
-0.0189129957096
15.9843161904
-0.0171582200694
16.0025576993
-0.0153833603333
16.0201091863
-0.013590368797
16.0372049898
-0.0120113348037
16.0538824001
-0.0106685809662
16.0697591566
-0.00906009327537
16.0847132317
-0.0071029581997
16.0989305382
-0.00506374125792
16.1124972919
-0.00300806171556
16.1253692828
-0.00094322394461
16.1375267458
0.00113240750968
16.148962759
0.00321705681636
16.1596718604
0.00530917295067
16.1696498152
0.00740709229331
16.1788935459
0.00950910978481
16.1874020498
0.0116124198605
16.1954098753
0.0134795823601
16.202933359
0.0151010333495
16.2095775346
0.0170142592266
16.2151636188
0.0193189201837
16.2198009983
0.0217385821276
16.2236395233
0.0241752343156
16.2266888202
0.0266024167472
16.2289045683
0.0290300188863
16.2302693369
0.0314606127706
16.2307787461
0.0338933479089
16.2306229857
0.0361408652693
16.2300351344
0.0380164999626
16.2287153972
0.0398705035506
0.0422583303182
15.2183559008
-0.088329008352
15.2472110581
-0.0693020176343
15.2757615208
-0.0678593775096
15.304206193
-0.0667282944375
15.332662946
-0.0657162723282
15.3610437005
-0.0647967706156
15.3892510706
-0.0639208626593
15.4172736151
-0.0630729399192
15.4450783329
-0.0622289190928
15.4724276243
-0.0612147136358
15.4989770835
-0.0597134847076
15.5247557296
-0.0579461869342
15.5499377994
-0.0562650614112
15.5745271995
-0.0545624136708
15.5985124858
-0.052772239053
15.6217609142
-0.0508655840072
15.6441532029
-0.0487735369744
15.6658364398
-0.0465087614012
15.6869450472
-0.0441605716728
15.7074710241
-0.0417737438854
15.7274074933
-0.0393524662199
15.7467468849
-0.0368966091144
15.7654868087
-0.0344128768118
15.7836168388
-0.0319021184451
15.8011513836
-0.0293711212602
15.8180699617
-0.0267959240554
15.8343633715
-0.0241891955872
15.8500277151
-0.0215571671293
15.8652072646
-0.0190386310138
15.8801013346
-0.0168806646612
15.894346167
-0.0146662473007
15.9075777955
-0.0119673199482
15.9199784287
-0.00901907179993
15.9316800838
-0.0060067518174
15.9426717891
-0.00297684256338
15.9529372591
7.04361163787e-05
15.9624722758
0.00313196851102
15.9712726406
0.00620569019602
15.9793344526
0.00928939706481
15.9866542992
0.0123808994548
15.9932296436
0.0154774886033
15.9992611324
0.0183753355731
16.0049102173
0.0209060815249
16.0097427825
0.0236132817023
16.0134376199
0.0268518393184
16.0161788438
0.0303071799343
16.0181266416
0.0337817251858
16.0193076071
0.0372469490361
16.0196890633
0.040714681327
16.0192609404
0.0441866236856
16.0180249083
0.047660550015
16.016133241
0.0509990676379
16.0138530586
0.0539131939232
16.0108990794
0.0567307715834
16.0067283261
0.0600090975671
0.0638575062651
15.1703844057
-0.11619057523
15.198137912
-0.0917236709285
15.2256327475
-0.0898516294159
15.2530503759
-0.0883658709629
15.2803946864
-0.0870233535653
15.307569913
-0.0857583720882
15.3345313814
-0.0845317224694
15.3612645894
-0.0833408698253
15.3877317026
-0.0821519696177
15.4135994045
-0.0805994998149
15.4386017211
-0.0784416358203
15.4629254648
-0.0761620248604
15.4866566906
-0.0739570897246
15.5097277052
-0.0716310821659
15.532099237
-0.0691702456831
15.5536486782
-0.0665062369386
15.5743303172