/*--------------------------------*- C++ -*----------------------------------*\
  =========                 |
  \\      /  F ield         | OpenFOAM: The Open Source CFD Toolbox
   \\    /   O peration     | Website:  https://openfoam.org
    \\  /    A nd           | Version:  7
     \\/     M anipulation  |
\*---------------------------------------------------------------------------*/
FoamFile
{
    version     2.0;
    format      ascii;
    class       pointVectorField;
    location    "1";
    object      pointDisplacement;
}
// * * * * * * * * * * * * * * * * * * * * * * * * * * * * * * * * * * * * * //

dimensions      [0 1 0 0 0 0 0];

internalField   nonuniform List<vector> 
15650
(
(0 0 0)
(-0.000611803644292 0 0)
(-0.0012096796156 0 0)
(-0.0017906660589 0 0)
(-0.00235728145624 0 0)
(-0.00291220106598 0 0)
(-0.00345819492055 0 0)
(-0.00399810460482 0 0)
(-0.00453486870838 0 0)
(-0.00507155402391 0 0)
(-0.00561137557047 0 0)
(-0.006157725743 0 0)
(-0.00671418684998 0 0)
(-0.00728452021496 0 0)
(-0.00787367952468 0 0)
(-0.00848668735153 0 0)
(-0.00912662269817 0 0)
(-0.00979681498762 0 0)
(-0.0105018327563 0 0)
(-0.0112464885018 0 0)
(-0.0119361328579 0 0)
(0 0 0)
(-0.000610771702967 0.000320316215827 0)
(-0.0012074007227 0.000635929659626 0)
(-0.00178690046799 0.000947078832922 0)
(-0.00235186109804 0.00125689557979 0)
(-0.0029050027902 0.0015685416164 0)
(-0.00344911316661 0.00188533153318 0)
(-0.00398701434285 0.00221056636409 0)
(-0.00452162101187 0.00254748073911 0)
(-0.00505598495095 0.0028994537784 0)
(-0.00559329941875 0.00326998834702 0)
(-0.0061369487412 0.0036625427956 0)
(-0.00669052685405 0.00408090559069 0)
(-0.00725779417141 0.00452930703028 0)
(-0.00784372652057 0.00501290638826 0)
(-0.00845337842819 0.00553750294201 0)
(-0.00908981879145 0.00610743466098 0)
(-0.00975637800603 0.00672693763885 0)
(-0.0104576530499 0.00740146230037 0)
(-0.0111984999572 0.00813598990043 0)
(-0.0118846414302 0.00883424997705 0)
(0 0 0)
(-0.000607569797454 0.00062526939591 0)
(-0.00120034443907 0.00124041849734 0)
(-0.00177534723781 0.00184574601292 0)
(-0.00233535767727 0.00244741520262 0)
(-0.00288323318765 0.00305140751384 0)
(-0.00342183049131 0.0036644355032 0)
(-0.00395386566383 0.00429299828969 0)
(-0.00448216363302 0.00494304224325 0)
(-0.00500975740518 0.0056211366379 0)
(-0.00553974580145 0.00633430963248 0)
(-0.00607548158217 0.00708864853484 0)
(-0.00662064502665 0.00789127927066 0)
(-0.00717898992011 0.00875094832049 0)
(-0.00775551727175 0.00967749191308 0)
(-0.00835536839688 0.0106818165195 0)
(-0.00898161610477 0.0117721278545 0)
(-0.00963761162278 0.0129566918206 0)
(-0.0103280293871 0.0142461500569 0)
(-0.0110578395047 0.0156503440519 0)
(-0.0117342120595 0.0169853393065 0)
(0 0 0)
(-0.000602232728321 0.000908184943304 0)
(-0.00118832516573 0.00179914619118 0)
(-0.00175570137233 0.00267385335721 0)
(-0.00230744018769 0.00354157578356 0)
(-0.00284659245767 0.00441126647804 0)
(-0.00337635860852 0.00529280487285 0)
(-0.0038990388179 0.00619443848 0)
(-0.00441716881709 0.00712423066286 0)
(-0.00493399150938 0.00809189873767 0)
(-0.00545236347472 0.00910667122772 0)
(-0.00597537812877 0.0101768857637 0)
(-0.00650707214099 0.0113149606082 0)
(-0.00705121384202 0.0125343996332 0)
(-0.00761266459738 0.0138475079876 0)
(-0.00819676383131 0.0152690579037 0)
(-0.00880667144197 0.016811176301 0)
(-0.00944579459122 0.0184859995906 0)
(-0.0101189160608 0.0203091035132 0)
(-0.0108311746115 0.0222951183017 0)
(-0.011492051582 0.0241841133392 0)
(0 0 0)
(-0.000593672805033 0.0011644013728 0)
(-0.00117064342175 0.00230527845635 0)
(-0.00172813920956 0.00342319670487 0)
(-0.00226922466994 0.00452991039513 0)
(-0.00279690185891 0.00563712013401 0)
(-0.00331435889544 0.00675624536767 0)
(-0.00382388985832 0.00789695201132 0)
(-0.00432797075018 0.00906980879488 0)
(-0.00482977672798 0.0102866417925 0)
(-0.00533206962011 0.0115581178312 0)
(-0.00583817133623 0.0128975517368 0)
(-0.00635250800409 0.0143228686149 0)
(-0.0068781972882 0.0158475624436 0)
(-0.00741946069561 0.0174857350072 0)
(-0.00798223648183 0.0192578115092 0)
(-0.00857016375238 0.0211797608527 0)
(-0.00918667928111 0.0232671636609 0)
(-0.0098366681877 0.0255403452454 0)
(-0.0105254724574 0.0280186890943 0)
(-0.0111656544506 0.0303781487462 0)
(0 0 0)
(-0.000582015377853 0.00139159643464 0)
(-0.00114755701809 0.00275438294298 0)
(-0.00169310011889 0.00408708102857 0)
(-0.00222139967072 0.00540300677608 0)
(-0.00273521173705 0.00671543399249 0)
(-0.0032373145016 0.00803687415481 0)
(-0.00373034404397 0.00937950783164 0)
(-0.00421697830738 0.0107563649096 0)
(-0.00470009445014 0.0121808963211 0)
(-0.00518262127392 0.0136667196311 0)
(-0.00566810850834 0.0152311970464 0)
(-0.00616066880443 0.0168924016967 0)
(-0.00666325338635 0.0186634220987 0)
(-0.00717988547067 0.0205644030971 0)
(-0.00771652627625 0.0226201344541 0)
(-0.00827736943635 0.0248479371766 0)
(-0.00886608757534 0.0272684365727 0)
(-0.00948762805081 0.0299070765819 0)
(-0.0101475800505 0.0327876486824 0)
(-0.01076229888 0.0355340517929 0)
(0 0 0)
(-0.00056851260781 0.00159014225362 0)
(-0.00112018590834 0.00314480623412 0)
(-0.00165119274765 0.00466121626215 0)
(-0.00216409385351 0.00615399776177 0)
(-0.00266146995921 0.00763753590083 0)
(-0.00314592455738 0.00912600447183 0)
(-0.00362007722606 0.0106336368005 0)
(-0.00408662466355 0.0121751427511 0)
(-0.00454840552092 0.0137658911601 0)
(-0.00500842834392 0.01542219862 0)
(-0.0054699617838 0.0171620533238 0)
(-0.00593658500151 0.0190032492197 0)
(-0.00641184764349 0.0209635036328 0)
(-0.0068998819117 0.0230669731765 0)
(-0.00740569735836 0.0253372720473 0)
(-0.00793416152037 0.0277960988796 0)
(-0.00849003690428 0.0304715620493 0)
(-0.00907825153101 0.0333913178587 0)
(-0.00970436187028 0.0365838092694 0)
(-0.0102891711783 0.0396339993911 0)
(0 0 0)
(-0.000553081072973 0.0017587814571 0)
(-0.001088842152 0.00347487213743 0)
(-0.00160320048604 0.0051438731038 0)
(-0.00209855661425 0.00678147986771 0)
(-0.0025773325709 0.00840310891449 0)
(-0.00304199136215 0.0100241018705 0)
(-0.00349505929302 0.0116599795007 0)
(-0.00393916457491 0.0133267293975 0)
(-0.00437708026929 0.0150410568778 0)
(-0.00481176254162 0.0168206341658 0)
(-0.00524639226562 0.0186843193956 0)
(-0.00568439530617 0.02065204844 0)
(-0.00612942031496 0.0227452526419 0)
(-0.00658542843434 0.0249879998681 0)
(-0.00705684617832 0.0274045212691 0)
(-0.00754871882167 0.0300226153309 0)
(-0.00806647755862 0.0328730611971 0)
(-0.00861574832942 0.0359875656086 0)
(-0.00920279944537 0.0394027908867 0)
(-0.00975344997724 0.0426743924753 0)
(0 0 0)
(-0.000535949035631 0.00189733775882 0)
(-0.0010540914913 0.00374456204061 0)
(-0.00155008835815 0.00553542090551 0)
(-0.00202617031901 0.00728633364845 0)
(-0.00248459185478 0.00901340769356 0)
(-0.00292766147637 0.0107327084775 0)
(-0.00335777229414 0.0124605311879 0)
(-0.00377743680601 0.0142136777574 0)
(-0.00418932364733 0.0160097246647 0)
(-0.00459629378739 0.0178672816519 0)
(-0.00500143572158 0.0198062323741 0)
(-0.00540809587912 0.0218479449169 0)
(-0.00581990723638 0.0240155888854 0)
(-0.00624083975204 0.0263344879514 0)
(-0.00667525102047 0.0288320685606 0)
(-0.00712787949979 0.0315386150734 0)
(-0.00760398458819 0.0344860634973 0)
(-0.00810961456039 0.0377118299541 0)
(-0.0086518241355 0.0412571443668 0)
(-0.00916304833799 0.0446638712726 0)
(0 0 0)
(-0.00051747193134 0.00200650999927 0)
(-0.00101665502254 0.0039553517585 0)
(-0.00149297209331 0.00583829094692 0)
(-0.00194846093146 0.00767207344909 0)
(-0.00238518433801 0.00947308288886 0)
(-0.00280527030999 0.0112576684723 0)
(-0.00321094695937 0.0130424444565 0)
(-0.00360457718024 0.0148445829688 0)
(-0.00398869387478 0.0166821034383 0)
(-0.00436603562573 0.0185741616474 0)
(-0.00473958281996 0.0205413409823 0)
(-0.00511259429258 0.0226059529171 0)
(-0.00548864647918 0.0247923687258 0)
(-0.0058716787187 0.0271273609561 0)
(-0.00626603993316 0.029640410404 0)
(-0.00667653149135 0.0323641118815 0)
(-0.00710846560054 0.0353344355702 0)
(-0.00756768509148 0.0385915521483 0)
(-0.00806119254045 0.0421789192006 0)
(-0.00852820141066 0.0456365971238 0)
(0 0 0)
(-0.000498118060422 0.0020879288184 0)
(-0.000977362182719 0.00411012429166 0)
(-0.00143309008328 0.00605692610991 0)
(-0.00186709296517 0.0079448752846 0)
(-0.00228120463479 0.00979016075205 0)
(-0.0026773417003 0.0116089666829 0)
(-0.0030575379512 0.0134177851449 0)
(-0.00342397813316 0.0152337238195 0)
(-0.00377903248853 0.0170748174224 0)
(-0.00412529265118 0.0189603488978 0)
(-0.00446560939292 0.0209111862154 0)
(-0.00480313288527 0.0229501415782 0)
(-0.00514135656701 0.0251023600496 0)
(-0.00548416565318 0.0273957359435 0)
(-0.0058358898302 0.0298613546242 0)
(-0.00620136008996 0.0325339762517 0)
(-0.00658597232844 0.0354525355762 0)
(-0.00699575361732 0.0386606972479 0)
(-0.00743785683764 0.0422078720434 0)
(-0.00785790558602 0.0456396997056 0)
(0 0 0)
(-0.000478280705554 0.00214341829036 0)
(-0.000937074458927 0.00421287422472 0)
(-0.00137177043544 0.00619763887549 0)
(-0.00178385507891 0.00811347528541 0)
(-0.00217489758242 0.00997590950806 0)
(-0.00254657492055 0.0118005251187 0)
(-0.00290070066791 0.0136032647517 0)
(-0.00323925645394 0.0154007443284 0)
(-0.00356442561481 0.0172105825875 0)
(-0.00387862928484 0.0190517515856 0)
(-0.00418456548253 0.0209449552308 0)
(-0.00448525195691 0.0229130435377 0)
(-0.00478407371777 0.0249814698442 0)
(-0.00508483614623 0.0271787960816 0)
(-0.00539182435247 0.0295372503491 0)
(-0.00570986959441 0.0320933414132 0)
(-0.00604442390761 0.034888526956 0)
(-0.00640164233432 0.0379699302379 0)
(-0.00678887873755 0.0413921006868 0)
(-0.00715920571935 0.0447203953655 0)
(0 0 0)
(-0.000458214478689 0.00217459694532 0)
(-0.000896678197446 0.00426861777474 0)
(-0.00131042768299 0.00626853248518 0)
(-0.00170065312258 0.00818904231958 0)
(-0.00206864686917 0.0100446492049 0)
(-0.00241582761919 0.01184994805 0)
(-0.00274376799663 0.0136199298397 0)
(-0.003054225007 0.0153703034818 0)
(-0.00334917315126 0.0171178407655 0)
(-0.00363084065221 0.0188807523211 0)
(-0.00390174954094 0.0206791041487 0)
(-0.00416476052234 0.0225352850704 0)
(-0.00442312364668 0.0244745354729 0)
(-0.00468053585728 0.0265255468441 0)
(-0.00494120649858 0.0287211402377 0)
(-0.00520993198533 0.0310990296199 0)
(-0.00549218106591 0.0337026722694 0)
(-0.00579419127703 0.0365822012232 0)
(-0.00612346428688 0.0397967387652 0)
(-0.00644092835498 0.0429427189025 0)
(0 0 0)
(-0.000438469072785 0.00218471950991 0)
(-0.000857216020722 0.00428390820121 0)
(-0.00125059681358 0.00627955339455 0)
(-0.00161951054417 0.00818503660792 0)
(-0.00196496207023 0.0100135032562 0)
(-0.00228809583662 0.0117781980835 0)
(-0.00259022559616 0.0134927803574 0)
(-0.00287286479893 0.0151716520925 0)
(-0.00313775924909 0.0168303131458 0)
(-0.00338692321199 0.0184857561596 0)
(-0.00362268008746 0.0201569149224 0)
(-0.00384770880768 0.021865180609 0)
(-0.00406509718016 0.0236350009251 0)
(-0.00427840343672 0.0254945768856 0)
(-0.00449172726188 0.0274766702758 0)
(-0.00470979159953 0.0296195312346 0)
(-0.00493803668818 0.0319679500133 0)
(-0.00518272713096 0.0345744263985 0)
(-0.00545142649604 0.0375019190193 0)
(-0.00571325041918 0.0403887869591 0)
(0 0 0)
(-0.000419810724863 0.00217849776436 0)
(-0.00081985403132 0.00426666889759 0)
(-0.00119391069987 0.00624227164801 0)
(-0.0015425466422 0.00811692291894 0)
(-0.00186645518724 0.00990204272675 0)
(-0.00216648822047 0.0116091750144 0)
(-0.002443683915 0.0132502907648 0)
(-0.00269929538948 0.0148381081043 0)
(-0.00293482200265 0.0163864457255 0)
(-0.00315204467216 0.0179106257302 0)
(-0.00335306655126 0.0194279433631 0)
(-0.003540360449 0.0209582231163 0)
(-0.00371682445459 0.0225244826446 0)
(-0.00388584726224 0.0241537269485 0)
(-0.00405138461186 0.0258778939733 0)
(-0.00421804799064 0.0277349672686 0)
(-0.00439120629731 0.0297702601327 0)
(-0.00457709974889 0.0320378540018 0)
(-0.00478327162835 0.0346036605427 0)
(-0.00498726971028 0.0371581812254 0)
(0 0 0)
(-0.000402864040461 0.00216044394009 0)
(-0.000785748760808 0.00422548347023 0)
(-0.00114203914847 0.00616942461186 0)
(-0.00147193816384 0.00800174492735 0)
(-0.00177580851285 0.0097318191769 0)
(-0.0020541949001 0.0113691861373 0)
(-0.00230784664659 0.0129238162764 0)
(-0.00253774294339 0.0144064068487 0)
(-0.00274512170081 0.01582871849 0)
(-0.00293151322916 0.0172039706325 0)
(-0.00309878019119 0.018547316708 0)
(-0.00324916545011 0.0198764243712 0)
(-0.00338534962609 0.0212121907982 0)
(-0.00351052031959 0.0225796276386 0)
(-0.00362845489362 0.0240089521609 0)
(-0.00374361810064 0.02553691598 0)
(-0.00386127421644 0.0272083832075 0)
(-0.00398760930853 0.0290781220526 0)
(-0.00413010407871 0.0312141019073 0)
(-0.00427490209976 0.0333684732728 0)
(0 0 0)
(-0.000388180136866 0.00213497578624 0)
(-0.000756037799653 0.00416935920899 0)
(-0.00109666249578 0.0060745512474 0)
(-0.00140988853209 0.00785766674394 0)
(-0.00169574199187 0.00952581747024 0)
(-0.00195445361056 0.0110863111397 0)
(-0.00218647612864 0.012546873426 0)
(-0.00239250564784 0.0139159055644 0)
(-0.00257350725952 0.0152027884465 0)
(-0.0027307461967 0.0164182517485 0)
(-0.00286582614711 0.0175748323453 0)
(-0.00298073665344 0.0186874530233 0)
(-0.00307791191666 0.0197741616952 0)
(-0.00316030384838 0.0208570830511 0)
(-0.00323147268605 0.0219636469946 0)
(-0.00329569830762 0.0231281649028 0)
(-0.00335811320417 0.0243938093505 0)
(-0.00342485023127 0.0258149757006 0)
(-0.00350336751758 0.0274609779235 0)
(-0.00358854622466 0.0291546862275 0)
(0 0 0)
(-0.000376311451912 0.00210665245744 0)
(-0.000731857592469 0.00410761621943 0)
(-0.00105945878619 0.00597165205687 0)
(-0.00135860057869 0.0077034734313 0)
(-0.00162897935643 0.00930782838379 0)
(-0.0018705127193 0.010789658503 0)
(-0.00208335506194 0.0121542852606 0)
(-0.00226791553565 0.0134076231104 0)
(-0.00242487969634 0.0145564349393 0)
(-0.0025552370275 0.0156086530493 0)
(-0.00266031637807 0.016573792442 0)
(-0.00274183147816 0.0174634906057 0)
(-0.00280193924692 0.0182922216408 0)
(-0.00284331484495 0.019078254557 0)
(-0.0028692493358 0.0198449584504 0)
(-0.00288377819916 0.0206226012174 0)
(-0.00289185073654 0.0214508312298 0)
(-0.00289954598395 0.0223820142363 0)
(-0.00291443649945 0.0234861809426 0)
(-0.00294043673492 0.0246667020776 0)
(0 0 0)
(-0.000367831596262 0.00208019135895 0)
(-0.000714352465458 0.00404973995351 0)
(-0.00103208190029 0.00587477752399 0)
(-0.00132024211564 0.00755798947548 0)
(-0.00157820864168 0.00910172919689 0)
(-0.00180558911361 0.0105085112369 0)
(-0.00200224294111 0.0117811874616 0)
(-0.00216829477888 0.0129231024612 0)
(-0.00230415009442 0.0139382790425 0)
(-0.00241051743854 0.0148316678142 0)
(-0.00248843952443 0.0156094854729 0)
(-0.0025393349913 0.0162796713093 0)
(-0.00256505305345 0.0168525064587 0)
(-0.00256794517535 0.0173414687617 0)
(-0.00255096151749 0.0177644486078 0)
(-0.00251778629678 0.0181455495578 0)
(-0.00247303965525 0.0185178804027 0)
(-0.00242259775523 0.0189280653187 0)
(-0.00237417971689 0.0194441093276 0)
(-0.00234141372759 0.0200616854091 0)
(0 0 0)
(-0.000363229445526 0.0020598162247 0)
(-0.000704573043681 0.00400463634787 0)
(-0.00101610816423 0.00579743171209 0)
(-0.00129689548229 0.00743938207195 0)
(-0.00154603467908 0.00893067727088 0)
(-0.00176281954923 0.0102713742949 0)
(-0.00194682453008 0.0114619008244 0)
(-0.0020979016268 0.0125030857542 0)
(-0.00221618419807 0.0133962388734 0)
(-0.00230210230258 0.0141433116906 0)
(-0.00235640842669 0.0147471417648 0)
(-0.00238021456871 0.0152117927308 0)
(-0.0023750401432 0.0155430140173 0)
(-0.00234287265073 0.015748862542 0)
(-0.00228624645479 0.0158405661865 0)
(-0.00220834832351 0.0158337970073 0)
(-0.00211317573123 0.0157507437637 0)
(-0.00200582082635 0.0156239844759 0)
(-0.00189316072394 0.0155055300199 0)
(-0.00179811013867 0.0154821177869 0)
(0 0 0)
(-0.000362396022511 0.00204864091369 0)
(-0.000702670760257 0.00398055470348 0)
(-0.00101237162355 0.00575542300697 0)
(-0.00129014067951 0.00737166108761 0)
(-0.00153493992884 0.00882817185931 0)
(-0.00174584831469 0.010123244369 0)
(-0.00192222169823 0.0112554196071 0)
(-0.00206370218926 0.0122235625045 0)
(-0.00217020611364 0.0130268207367 0)
(-0.00224193564992 0.0136647221432 0)
(-0.00227940023732 0.0141373467017 0)
(-0.00228345217769 0.0144455704647 0)
(-0.00225532940317 0.014591384176 0)
(-0.00219670462738 0.0145782859293 0)
(-0.00210974448855 0.0144117370665 0)
(-0.00199716689585 0.0140996535446 0)
(-0.00186228617526 0.013652857652 0)
(-0.00170900678621 0.0130851486848 0)
(-0.00154155931908 0.0124109140796 0)
(-0.00133487073839 0.0113321732873 0)
(0 0 0)
(-0.000611803644292 0 0)
(-0.0012096796156 0 0)
(-0.0017906660589 0 0)
(-0.00235728145624 0 0)
(-0.00291220106598 0 0)
(-0.00345819492055 0 0)
(-0.00399810460482 0 0)
(-0.00453486870838 0 0)
(-0.00507155402391 0 0)
(-0.00561137557047 0 0)
(-0.006157725743 0 0)
(-0.00671418684998 0 0)
(-0.00728452021496 0 0)
(-0.00787367952468 0 0)
(-0.00848668735153 0 0)
(-0.00912662269817 0 0)
(-0.00979681498762 0 0)
(-0.0105018327563 0 0)
(-0.0112464885018 0 0)
(-0.0119361328579 0 0)
(0 0 0)
(-0.000610771702967 0.000320316215827 0)
(-0.0012074007227 0.000635929659626 0)
(-0.00178690046799 0.000947078832922 0)
(-0.00235186109804 0.00125689557979 0)
(-0.0029050027902 0.0015685416164 0)
(-0.00344911316661 0.00188533153318 0)
(-0.00398701434285 0.00221056636409 0)
(-0.00452162101187 0.00254748073911 0)
(-0.00505598495095 0.0028994537784 0)
(-0.00559329941875 0.00326998834702 0)
(-0.0061369487412 0.0036625427956 0)
(-0.00669052685405 0.00408090559069 0)
(-0.00725779417141 0.00452930703028 0)
(-0.00784372652057 0.00501290638826 0)
(-0.00845337842819 0.00553750294201 0)
(-0.00908981879145 0.00610743466098 0)
(-0.00975637800603 0.00672693763885 0)
(-0.0104576530499 0.00740146230037 0)
(-0.0111984999572 0.00813598990043 0)
(-0.0118846414302 0.00883424997705 0)
(0 0 0)
(-0.000607569797454 0.00062526939591 0)
(-0.00120034443907 0.00124041849734 0)
(-0.00177534723781 0.00184574601292 0)
(-0.00233535767727 0.00244741520262 0)
(-0.00288323318765 0.00305140751384 0)
(-0.00342183049131 0.0036644355032 0)
(-0.00395386566383 0.00429299828969 0)
(-0.00448216363302 0.00494304224325 0)
(-0.00500975740518 0.0056211366379 0)
(-0.00553974580145 0.00633430963248 0)
(-0.00607548158217 0.00708864853484 0)
(-0.00662064502665 0.00789127927066 0)
(-0.00717898992011 0.00875094832049 0)
(-0.00775551727175 0.00967749191308 0)
(-0.00835536839688 0.0106818165195 0)
(-0.00898161610477 0.0117721278545 0)
(-0.00963761162278 0.0129566918206 0)
(-0.0103280293871 0.0142461500569 0)
(-0.0110578395047 0.0156503440519 0)
(-0.0117342120595 0.0169853393065 0)
(0 0 0)
(-0.000602232728321 0.000908184943304 0)
(-0.00118832516573 0.00179914619118 0)
(-0.00175570137233 0.00267385335721 0)
(-0.00230744018769 0.00354157578356 0)
(-0.00284659245767 0.00441126647804 0)
(-0.00337635860852 0.00529280487285 0)
(-0.0038990388179 0.00619443848 0)
(-0.00441716881709 0.00712423066286 0)
(-0.00493399150938 0.00809189873767 0)
(-0.00545236347472 0.00910667122772 0)
(-0.00597537812877 0.0101768857637 0)
(-0.00650707214099 0.0113149606082 0)
(-0.00705121384202 0.0125343996332 0)
(-0.00761266459738 0.0138475079876 0)
(-0.00819676383131 0.0152690579037 0)
(-0.00880667144197 0.016811176301 0)
(-0.00944579459122 0.0184859995906 0)
(-0.0101189160608 0.0203091035132 0)
(-0.0108311746115 0.0222951183017 0)
(-0.011492051582 0.0241841133392 0)
(0 0 0)
(-0.000593672805033 0.0011644013728 0)
(-0.00117064342175 0.00230527845635 0)
(-0.00172813920956 0.00342319670487 0)
(-0.00226922466994 0.00452991039513 0)
(-0.00279690185891 0.00563712013401 0)
(-0.00331435889544 0.00675624536767 0)
(-0.00382388985832 0.00789695201132 0)
(-0.00432797075018 0.00906980879488 0)
(-0.00482977672798 0.0102866417925 0)
(-0.00533206962011 0.0115581178312 0)
(-0.00583817133623 0.0128975517368 0)
(-0.00635250800409 0.0143228686149 0)
(-0.0068781972882 0.0158475624436 0)
(-0.00741946069561 0.0174857350072 0)
(-0.00798223648183 0.0192578115092 0)
(-0.00857016375238 0.0211797608527 0)
(-0.00918667928111 0.0232671636609 0)
(-0.0098366681877 0.0255403452454 0)
(-0.0105254724574 0.0280186890943 0)
(-0.0111656544506 0.0303781487462 0)
(0 0 0)
(-0.000582015377853 0.00139159643464 0)
(-0.00114755701809 0.00275438294298 0)
(-0.00169310011889 0.00408708102857 0)
(-0.00222139967072 0.00540300677608 0)
(-0.00273521173705 0.00671543399249 0)
(-0.0032373145016 0.00803687415481 0)
(-0.00373034404397 0.00937950783164 0)
(-0.00421697830738 0.0107563649096 0)
(-0.00470009445014 0.0121808963211 0)
(-0.00518262127392 0.0136667196311 0)
(-0.00566810850834 0.0152311970464 0)
(-0.00616066880443 0.0168924016967 0)
(-0.00666325338635 0.0186634220987 0)
(-0.00717988547067 0.0205644030971 0)
(-0.00771652627625 0.0226201344541 0)
(-0.00827736943635 0.0248479371766 0)
(-0.00886608757534 0.0272684365727 0)
(-0.00948762805081 0.0299070765819 0)
(-0.0101475800505 0.0327876486824 0)
(-0.01076229888 0.0355340517929 0)
(0 0 0)
(-0.00056851260781 0.00159014225362 0)
(-0.00112018590834 0.00314480623412 0)
(-0.00165119274765 0.00466121626215 0)
(-0.00216409385351 0.00615399776177 0)
(-0.00266146995921 0.00763753590083 0)
(-0.00314592455738 0.00912600447183 0)
(-0.00362007722606 0.0106336368005 0)
(-0.00408662466355 0.0121751427511 0)
(-0.00454840552092 0.0137658911601 0)
(-0.00500842834392 0.01542219862 0)
(-0.0054699617838 0.0171620533238 0)
(-0.00593658500151 0.0190032492197 0)
(-0.00641184764349 0.0209635036328 0)
(-0.0068998819117 0.0230669731765 0)
(-0.00740569735836 0.0253372720473 0)
(-0.00793416152037 0.0277960988796 0)
(-0.00849003690428 0.0304715620493 0)
(-0.00907825153101 0.0333913178587 0)
(-0.00970436187028 0.0365838092694 0)
(-0.0102891711783 0.0396339993911 0)
(0 0 0)
(-0.000553081072973 0.0017587814571 0)
(-0.001088842152 0.00347487213743 0)
(-0.00160320048604 0.0051438731038 0)
(-0.00209855661425 0.00678147986771 0)
(-0.0025773325709 0.00840310891449 0)
(-0.00304199136215 0.0100241018705 0)
(-0.00349505929302 0.0116599795007 0)
(-0.00393916457491 0.0133267293975 0)
(-0.00437708026929 0.0150410568778 0)
(-0.00481176254162 0.0168206341658 0)
(-0.00524639226562 0.0186843193956 0)
(-0.00568439530617 0.02065204844 0)
(-0.00612942031496 0.0227452526419 0)
(-0.00658542843434 0.0249879998681 0)
(-0.00705684617832 0.0274045212691 0)
(-0.00754871882167 0.0300226153309 0)
(-0.00806647755862 0.0328730611971 0)
(-0.00861574832942 0.0359875656086 0)
(-0.00920279944537 0.0394027908867 0)
(-0.00975344997724 0.0426743924753 0)
(0 0 0)
(-0.000535949035631 0.00189733775882 0)
(-0.0010540914913 0.00374456204061 0)
(-0.00155008835815 0.00553542090551 0)
(-0.00202617031901 0.00728633364845 0)
(-0.00248459185478 0.00901340769356 0)
(-0.00292766147637 0.0107327084775 0)
(-0.00335777229414 0.0124605311879 0)
(-0.00377743680601 0.0142136777574 0)
(-0.00418932364733 0.0160097246647 0)
(-0.00459629378739 0.0178672816519 0)
(-0.00500143572158 0.0198062323741 0)
(-0.00540809587912 0.0218479449169 0)
(-0.00581990723638 0.0240155888854 0)
(-0.00624083975204 0.0263344879514 0)
(-0.00667525102047 0.0288320685606 0)
(-0.00712787949979 0.0315386150734 0)
(-0.00760398458819 0.0344860634973 0)
(-0.00810961456039 0.0377118299541 0)
(-0.0086518241355 0.0412571443668 0)
(-0.00916304833799 0.0446638712726 0)
(0 0 0)
(-0.00051747193134 0.00200650999927 0)
(-0.00101665502254 0.0039553517585 0)
(-0.00149297209331 0.00583829094692 0)
(-0.00194846093146 0.00767207344909 0)
(-0.00238518433801 0.00947308288886 0)
(-0.00280527030999 0.0112576684723 0)
(-0.00321094695937 0.0130424444565 0)
(-0.00360457718024 0.0148445829688 0)
(-0.00398869387478 0.0166821034383 0)
(-0.00436603562573 0.0185741616474 0)
(-0.00473958281996 0.0205413409823 0)
(-0.00511259429258 0.0226059529171 0)
(-0.00548864647918 0.0247923687258 0)
(-0.0058716787187 0.0271273609561 0)
(-0.00626603993316 0.029640410404 0)
(-0.00667653149135 0.0323641118815 0)
(-0.00710846560054 0.0353344355702 0)
(-0.00756768509148 0.0385915521483 0)
(-0.00806119254045 0.0421789192006 0)
(-0.00852820141066 0.0456365971238 0)
(0 0 0)
(-0.000498118060422 0.0020879288184 0)
(-0.000977362182719 0.00411012429166 0)
(-0.00143309008328 0.00605692610991 0)
(-0.00186709296517 0.0079448752846 0)
(-0.00228120463479 0.00979016075205 0)
(-0.0026773417003 0.0116089666829 0)
(-0.0030575379512 0.0134177851449 0)
(-0.00342397813316 0.0152337238195 0)
(-0.00377903248853 0.0170748174224 0)
(-0.00412529265118 0.0189603488978 0)
(-0.00446560939292 0.0209111862154 0)
(-0.00480313288527 0.0229501415782 0)
(-0.00514135656701 0.0251023600496 0)
(-0.00548416565318 0.0273957359435 0)
(-0.0058358898302 0.0298613546242 0)
(-0.00620136008996 0.0325339762517 0)
(-0.00658597232844 0.0354525355762 0)
(-0.00699575361732 0.0386606972479 0)
(-0.00743785683764 0.0422078720434 0)
(-0.00785790558602 0.0456396997056 0)
(0 0 0)
(-0.000478280705554 0.00214341829036 0)
(-0.000937074458927 0.00421287422472 0)
(-0.00137177043544 0.00619763887549 0)
(-0.00178385507891 0.00811347528541 0)
(-0.00217489758242 0.00997590950806 0)
(-0.00254657492055 0.0118005251187 0)
(-0.00290070066791 0.0136032647517 0)
(-0.00323925645394 0.0154007443284 0)
(-0.00356442561481 0.0172105825875 0)
(-0.00387862928484 0.0190517515856 0)
(-0.00418456548253 0.0209449552308 0)
(-0.00448525195691 0.0229130435377 0)
(-0.00478407371777 0.0249814698442 0)
(-0.00508483614623 0.0271787960816 0)
(-0.00539182435247 0.0295372503491 0)
(-0.00570986959441 0.0320933414132 0)
(-0.00604442390761 0.034888526956 0)
(-0.00640164233432 0.0379699302379 0)
(-0.00678887873755 0.0413921006868 0)
(-0.00715920571935 0.0447203953655 0)
(0 0 0)
(-0.000458214478689 0.00217459694532 0)
(-0.000896678197446 0.00426861777474 0)
(-0.00131042768299 0.00626853248518 0)
(-0.00170065312258 0.00818904231958 0)
(-0.00206864686917 0.0100446492049 0)
(-0.00241582761919 0.01184994805 0)
(-0.00274376799663 0.0136199298397 0)
(-0.003054225007 0.0153703034818 0)
(-0.00334917315126 0.0171178407655 0)
(-0.00363084065221 0.0188807523211 0)
(-0.00390174954094 0.0206791041487 0)
(-0.00416476052234 0.0225352850704 0)
(-0.00442312364668 0.0244745354729 0)
(-0.00468053585728 0.0265255468441 0)
(-0.00494120649858 0.0287211402377 0)
(-0.00520993198533 0.0310990296199 0)
(-0.00549218106591 0.0337026722694 0)
(-0.00579419127703 0.0365822012232 0)
(-0.00612346428688 0.0397967387652 0)
(-0.00644092835498 0.0429427189025 0)
(0 0 0)
(-0.000438469072785 0.00218471950991 0)
(-0.000857216020722 0.00428390820121 0)
(-0.00125059681358 0.00627955339455 0)
(-0.00161951054417 0.00818503660792 0)
(-0.00196496207023 0.0100135032562 0)
(-0.00228809583662 0.0117781980835 0)
(-0.00259022559616 0.0134927803574 0)
(-0.00287286479893 0.0151716520925 0)
(-0.00313775924909 0.0168303131458 0)
(-0.00338692321199 0.0184857561596 0)
(-0.00362268008746 0.0201569149224 0)
(-0.00384770880768 0.021865180609 0)
(-0.00406509718016 0.0236350009251 0)
(-0.00427840343672 0.0254945768856 0)
(-0.00449172726188 0.0274766702758 0)
(-0.00470979159953 0.0296195312346 0)
(-0.00493803668818 0.0319679500133 0)
(-0.00518272713096 0.0345744263985 0)
(-0.00545142649604 0.0375019190193 0)
(-0.00571325041918 0.0403887869591 0)
(0 0 0)
(-0.000419810724863 0.00217849776436 0)
(-0.00081985403132 0.00426666889759 0)
(-0.00119391069987 0.00624227164801 0)
(-0.0015425466422 0.00811692291894 0)
(-0.00186645518724 0.00990204272675 0)
(-0.00216648822047 0.0116091750144 0)
(-0.002443683915 0.0132502907648 0)
(-0.00269929538948 0.0148381081043 0)
(-0.00293482200265 0.0163864457255 0)
(-0.00315204467216 0.0179106257302 0)
(-0.00335306655126 0.0194279433631 0)
(-0.003540360449 0.0209582231163 0)
(-0.00371682445459 0.0225244826446 0)
(-0.00388584726224 0.0241537269485 0)
(-0.00405138461186 0.0258778939733 0)
(-0.00421804799064 0.0277349672686 0)
(-0.00439120629731 0.0297702601327 0)
(-0.00457709974889 0.0320378540018 0)
(-0.00478327162835 0.0346036605427 0)
(-0.00498726971028 0.0371581812254 0)
(0 0 0)
(-0.000402864040461 0.00216044394009 0)
(-0.000785748760808 0.00422548347023 0)
(-0.00114203914847 0.00616942461186 0)
(-0.00147193816384 0.00800174492735 0)
(-0.00177580851285 0.0097318191769 0)
(-0.0020541949001 0.0113691861373 0)
(-0.00230784664659 0.0129238162764 0)
(-0.00253774294339 0.0144064068487 0)
(-0.00274512170081 0.01582871849 0)
(-0.00293151322916 0.0172039706325 0)
(-0.00309878019119 0.018547316708 0)
(-0.00324916545011 0.0198764243712 0)
(-0.00338534962609 0.0212121907982 0)
(-0.00351052031959 0.0225796276386 0)
(-0.00362845489362 0.0240089521609 0)
(-0.00374361810064 0.02553691598 0)
(-0.00386127421644 0.0272083832075 0)
(-0.00398760930853 0.0290781220526 0)
(-0.00413010407871 0.0312141019073 0)
(-0.00427490209976 0.0333684732728 0)
(0 0 0)
(-0.000388180136866 0.00213497578624 0)
(-0.000756037799653 0.00416935920899 0)
(-0.00109666249578 0.0060745512474 0)
(-0.00140988853209 0.00785766674394 0)
(-0.00169574199187 0.00952581747024 0)
(-0.00195445361056 0.0110863111397 0)
(-0.00218647612864 0.012546873426 0)
(-0.00239250564784 0.0139159055644 0)
(-0.00257350725952 0.0152027884465 0)
(-0.0027307461967 0.0164182517485 0)
(-0.00286582614711 0.0175748323453 0)
(-0.00298073665344 0.0186874530233 0)
(-0.00307791191666 0.0197741616952 0)
(-0.00316030384838 0.0208570830511 0)
(-0.00323147268605 0.0219636469946 0)
(-0.00329569830762 0.0231281649028 0)
(-0.00335811320417 0.0243938093505 0)
(-0.00342485023127 0.0258149757006 0)
(-0.00350336751758 0.0274609779235 0)
(-0.00358854622466 0.0291546862275 0)
(0 0 0)
(-0.000376311451912 0.00210665245744 0)
(-0.000731857592469 0.00410761621943 0)
(-0.00105945878619 0.00597165205687 0)
(-0.00135860057869 0.0077034734313 0)
(-0.00162897935643 0.00930782838379 0)
(-0.0018705127193 0.010789658503 0)
(-0.00208335506194 0.0121542852606 0)
(-0.00226791553565 0.0134076231104 0)
(-0.00242487969634 0.0145564349393 0)
(-0.0025552370275 0.0156086530493 0)
(-0.00266031637807 0.016573792442 0)
(-0.00274183147816 0.0174634906057 0)
(-0.00280193924692 0.0182922216408 0)
(-0.00284331484495 0.019078254557 0)