/*--------------------------------*- C++ -*----------------------------------*\
  =========                 |
  \\      /  F ield         | OpenFOAM: The Open Source CFD Toolbox
   \\    /   O peration     | Website:  https://openfoam.org
    \\  /    A nd           | Version:  7
     \\/     M anipulation  |
\*---------------------------------------------------------------------------*/
FoamFile
{
    version     2.0;
    format      ascii;
    class       volVectorField;
    location    "1";
    object      U;
}
// * * * * * * * * * * * * * * * * * * * * * * * * * * * * * * * * * * * * * //

dimensions      [0 1 -1 0 0 0 0];

internalField   nonuniform List<vector> 
7540
(
(51.3024954515 -0.00379829220897 1.71720012429e-20)
(51.3178959072 -0.0115836538719 -3.08043764828e-20)
(51.3533410577 -0.0197549322176 -1.7835655618e-19)
(51.4062065517 -0.0281825601126 4.50599510103e-19)
(51.4751293834 -0.0367902914207 6.03668966469e-19)
(51.5601388401 -0.0455680079241 -3.06681760044e-19)
(51.6615526299 -0.054527444222 -7.59868148316e-19)
(51.7794575866 -0.0636748304793 9.32284969184e-19)
(51.9137971911 -0.073005607855 1.12450954473e-19)
(52.0645209142 -0.0825024613549 -5.97945094524e-19)
(52.2315822629 -0.0921313852721 -6.38581873193e-19)
(52.4148596687 -0.101837532003 6.61868334362e-19)
(52.6140880997 -0.111542205743 1.61221792918e-18)
(52.8288140714 -0.121141180555 -1.62825441297e-18)
(53.05835624 -0.130504315406 8.77246365768e-19)
(53.3017692508 -0.139474425014 9.0223824481e-19)
(53.5577936219 -0.147872037553 -2.899660169e-18)
(53.8248723901 -0.155486205562 -2.96471103447e-18)
(54.1009644778 -0.16213916404 1.02029702265e-18)
(54.3844465123 -0.16745327346 2.11025051707e-18)
(51.3021789358 -0.0168378643336 -3.0030053621e-20)
(51.3163413455 -0.050306238499 1.5811635679e-19)
(51.3505948383 -0.0835089602849 8.42002653338e-20)
(51.402732278 -0.116383902716 -2.96810124234e-19)
(51.4712508583 -0.14896472344 3.57916650551e-19)
(51.5560427645 -0.181378239312 -5.86727883179e-19)
(51.6574058263 -0.213753801658 -5.53197786554e-19)
(51.7754565243 -0.246170395343 -3.92200556309e-19)
(51.9101750535 -0.278645614463 1.74433280026e-18)
(52.0615522919 -0.311131366707 2.34694397883e-18)
(52.22959152 -0.343504667577 6.75165641568e-20)
(52.4142276742 -0.375558324493 -1.65323296126e-18)
(52.6152548094 -0.406995853245 -2.20212816766e-18)
(52.832277186 -0.437429895973 1.67206490896e-18)
(53.0646672838 -0.466384814696 1.61861135921e-21)
(53.3115233604 -0.493300012435 4.70085042178e-20)
(53.5716260165 -0.517543256494 1.92670488652e-18)
(53.8433985724 -0.538407311329 1.04244814201e-18)
(54.1248407502 -0.555208703032 4.32740633016e-21)
(54.4137756718 -0.566768226262 -9.36999753452e-18)
(51.3022781842 -0.0278962007416 3.56952334885e-19)
(51.3168663893 -0.0827236223255 -1.32111078377e-19)
(51.3516537047 -0.136315124438 3.25260935888e-19)
(51.4043147996 -0.189015940197 -1.23187791098e-19)
(51.4733537448 -0.241187303292 -2.24262270436e-22)
(51.5587169019 -0.293143606591 1.77336299788e-19)
(51.6607837789 -0.34513576853 -1.17182760237e-18)
(51.7797617539 -0.397330095802 -1.03524674078e-18)
(51.9157222932 -0.449791723958 7.34555321742e-20)
(52.068749605 -0.502470281214 2.29875676104e-19)
(52.2389445512 -0.555184969003 1.61591608795e-18)
(52.4263416502 -0.607613104871 3.1242655658e-19)
(52.6308324793 -0.659282856896 -2.50099747587e-18)
(52.8521133681 -0.709568211574 -9.32544290858e-20)
(53.089638438 -0.757692055342 1.06648474742e-18)
(53.3425776669 -0.802731395043 -5.45037938462e-22)
(53.6097479815 -0.843640682783 -3.10744702399e-18)
(53.8896767281 -0.879236835799 1.0633972732e-18)
(54.1802455446 -0.908412752623 3.33623908852e-18)
(54.4803440287 -0.929151800853 3.87029514389e-18)
(51.3023046197 -0.038887744634 3.02664416734e-20)
(51.3169818244 -0.115542004021 -1.02942231727e-19)
(51.3517459865 -0.190840155652 -1.6457000308e-20)
(51.4042844281 -0.265236019663 -4.52478627879e-20)
(51.4732441585 -0.339190112025 7.82409862848e-19)
(51.5587069113 -0.413101683316 8.65237931685e-19)
(51.661161195 -0.487296547971 -9.51366616053e-19)
(51.7809266154 -0.561998008894 4.94843396278e-19)
(51.9182041357 -0.637293848827 4.98688694418e-19)
(52.073222819 -0.713107465664 1.93855338851e-18)
(52.2462384806 -0.789174922448 -6.26332302528e-19)
(52.4374452321 -0.865028385485 -2.00209028358e-18)
(52.646894372 -0.939981748262 1.18136784345e-18)
(52.8744366785 -1.01312064915 -1.71530821163e-18)
(53.1196670396 -1.08330761791 -9.15448726355e-19)
(53.3818708864 -1.14919006409 2.7026664114e-18)
(53.6599569901 -1.20923287383 6.19616543648e-22)
(53.9524494757 -1.26169470137 -2.4279725239e-18)
(54.2572565458 -1.30495662581 5.03401750054e-20)
(54.572551287 -1.33608020279 -4.05929791762e-18)
(51.3022969228 -0.0499376545882 -6.53652043198e-19)
(51.3169287874 -0.148454884074 -1.30960540055e-19)
(51.3516006817 -0.245340347706 -1.55216128709e-19)
(51.4040628806 -0.341128644145 4.41977952603e-19)
(51.473065032 -0.436411307164 -1.23050333493e-18)
(51.5588000346 -0.53174818253 -2.03813087032e-20)
(51.6618748626 -0.627616274504 -7.64501947269e-19)
(51.7827509916 -0.724356253858 -2.22464813266e-19)
(51.9218005205 -0.822127452383 1.77911030451e-18)
(52.0794468678 -0.920869890292 1.57545413291e-18)
(52.2561550968 -1.02027408451 3.4383596069e-18)
(52.4523376499 -1.11975591841 -2.37908612268e-18)
(52.6682678177 -1.21843227544 -1.18955895358e-18)
(52.904013243 -1.31510888019 2.58575072918e-18)
(53.1593675236 -1.40828658719 2.92903068881e-18)
(53.433789411 -1.4961666667 -1.46166782267e-19)
(53.7263076813 -1.57669251249 -5.08775940185e-19)
(54.0355713268 -1.64752310526 -1.97058018153e-19)
(54.3594516151 -1.70644221194 -3.60046082541e-21)
(54.6966190422 -1.74948588035 -4.12388736891e-18)
(51.302279605 -0.0609382429874 2.7144320703e-19)
(51.3168052281 -0.181184296329 2.73243791287e-19)
(51.3512476325 -0.299550190856 1.03461990685e-19)
(51.4034234953 -0.416763393404 9.62771065302e-19)
(51.4721853983 -0.533626225489 1.08184418233e-18)
(51.5578603725 -0.650907111884 -1.23253280429e-18)
(51.661219574 -0.76926724495 -9.95133623383e-19)
(51.782921653 -0.889190020951 -9.87812960272e-19)
(51.9235692473 -1.01092584128 1.09248354386e-18)
(52.0838451324 -1.13444541262 -1.28047298262e-18)
(52.2644963344 -1.25939897294 -6.90077586102e-19)
(52.4662341731 -1.38507888551 1.969552715e-18)
(52.6896384551 -1.51038627042 3.85083553595e-21)
(52.9350789832 -1.63381507883 -6.29168549112e-19)
(53.2026341627 -1.75345240842 -1.50117876723e-21)
(53.4920141729 -1.86698057151 7.48238795239e-19)
(53.8024423376 -1.97173420705 1.26222973023e-18)
(54.1326905505 -2.06465911017 2.53362152665e-18)
(54.4806171447 -2.14284641205 2.36246342771e-18)
(54.8448057787 -2.20119104081 -1.48163859394e-18)
(51.3022469194 -0.0718148495254 1.14401502785e-20)
(51.316564725 -0.213560315112 8.03281141666e-20)
(51.350532822 -0.35325189935 -2.90096731011e-19)
(51.402067561 -0.491857660535 -2.97147753446e-19)
(51.4701618338 -0.630421302162 1.15846056886e-18)
(51.5553102265 -0.769944190896 1.05985159928e-18)
(51.6584849171 -0.911302392605 -8.07064180712e-19)
(51.7805863509 -1.05515975385 -3.14586484234e-18)
(51.9225010146 -1.20189734798 -8.40472972205e-19)
(52.0852343317 -1.35155350099 2.14512356037e-18)
(52.2698896815 -1.50376872441 7.86273139471e-19)
(52.4775614427 -1.65773394423 -2.58968885535e-18)
(52.7092284633 -1.81214600386 -1.40568370413e-18)
(52.9656627936 -1.96517941295 3.60932947251e-18)
(53.2473303447 -2.11447520767 -1.35499800953e-18)
(53.5542951803 -2.25714261095 -3.20822917885e-19)
(53.8860595489 -2.38982463964 6.87285484869e-19)
(54.2416323082 -2.50864193023 8.33916127556e-19)
(54.6188899935 -2.60984553473 -9.73287920888e-19)
(55.0168800262 -2.68696210983 -3.49441705164e-18)
(51.3021917341 -0.08247547985 5.03800756977e-23)
(51.3161575216 -0.245311501043 -3.93314444363e-19)
(51.3493104825 -0.405999941719 4.76938703842e-19)
(51.399701726 -0.565800753649 -3.37386239817e-19)
(51.46649711 -0.726052391859 -7.01203945045e-19)
(51.5503824515 -0.888047180832 -2.01776934012e-20)
(51.6525593343 -1.05293863969 6.24930499458e-21)
(51.774212506 -1.22163525907 -7.69296993395e-19)
(51.9165702816 -1.39471037747 -1.13309580545e-18)
(52.0810335482 -1.57232524856 -7.44069719228e-19)
(52.2691497648 -1.75415711731 7.0360614231e-19)
(52.4824994946 -1.93932980302 -2.21826805308e-20)
(52.7225798282 -2.1263514806 -4.20992605429e-18)
(52.9906981428 -2.31306694152 1.54280056725e-18)
(53.2878487474 -2.49663184142 7.12781716686e-20)
(53.6145927116 -2.67350708591 -2.71028205685e-18)
(53.970847855 -2.8395250106 6.77268201809e-18)
(54.3559702602 -2.98981776807 -2.73967679764e-18)
(54.7678860353 -3.11960874015 -2.17154835303e-18)
(55.2060807011 -3.22083257276 3.25057890454e-18)
(51.3021063587 -0.0927927390095 -8.08751579119e-19)
(51.3155268662 -0.276057702901 -7.76407776383e-20)
(51.3474044167 -0.457174739185 -7.04299373083e-19)
(51.3959614637 -0.637757937684 -2.41474074531e-19)
(51.4605696702 -0.819502995591 2.56624928751e-19)
(51.5421289233 -1.00405791306 1.59120760827e-18)
(51.6420984382 -1.19292189607 8.51772546007e-19)
(51.7619911726 -1.38731954799 3.82719283794e-19)
(51.9034384975 -1.58808865608 3.59245175407e-19)
(52.0683150878 -1.79558313242 -1.35188622818e-21)
(52.2587096093 -2.0095811654 7.51591817993e-19)
(52.4768077882 -2.22919337065 1.18981799108e-19)
(52.7247672434 -2.45277499084 8.17043710729e-19)
(53.0045951364 -2.67785125491 -1.12848167286e-18)
(53.3179961871 -2.9010678434 -2.94625013206e-18)
(53.6662247012 -3.11816500969 4.79540922226e-19)
(54.0498033888 -3.32403559884 3.65380627645e-18)
(54.4686396932 -3.512633903 -7.04299332953e-18)
(54.9207981637 -3.67789239755 1.99099564916e-19)
(55.4066636557 -3.80976243027 9.19840182636e-18)
(51.3019819246 -0.102599337862 -4.6948805074e-19)
(51.3146072392 -0.305299825919 -3.84027928824e-20)
(51.3446119201 -0.505954902767 -2.78722793394e-18)
(51.3904304118 -0.706601707208 2.9767896241e-19)
(51.4516737253 -0.909362423829 4.70546900794e-19)
(51.5294730681 -1.11631345714 -6.08919726539e-19)
(51.6255642445 -1.32938075138 1.42325029315e-19)
(51.7418239313 -1.55019604385 -5.65613210578e-19)
(51.8803434848 -1.7799596617 1.53774574608e-18)
(52.0435502631 -2.0193191587 1.22292067958e-18)
(52.2341774805 -2.26825308005 7.89627040444e-19)
(52.455149589 -2.52595011206 -1.05579707478e-18)
(52.7094538087 -2.79068611269 2.33591664637e-18)
(53.0000035694 -3.05971069931 3.66292574586e-18)
(53.3294545722 -3.32915869649 -3.45257091281e-18)
(53.7000240335 -3.59398775813 -2.14233984268e-18)
(54.1131129649 -3.8480128645 4.34142197996e-18)
(54.5694794563 -4.08378187659 -5.33643068742e-18)
(55.067488994 -4.2936290186 -4.11907896855e-18)
(55.6088922707 -4.46508310488 2.27900389744e-18)
(51.3018088596 -0.111684018331 4.37599234331e-21)
(51.3133286522 -0.332406443461 2.35941029584e-19)
(51.340715742 -0.551292256494 1.58261633802e-19)
(51.3826575489 -0.770874972423 1.67874657888e-19)
(51.4390367382 -0.993777520379 4.75668711241e-19)
(51.5112246484 -1.22258682246 -1.58341402619e-18)
(51.6012380797 -1.45975313317 -6.93794053728e-19)
(51.7113380059 -1.70742727558 -3.79265404311e-19)
(51.844121263 -1.96729261425 -5.0782598028e-18)
(52.0026403661 -2.24042033368 -1.73585891225e-18)
(52.1903775701 -2.52712939832 1.19800850876e-18)
(52.4111421587 -2.82682776552 1.7060954677e-18)
(52.6689475636 -3.1378394587 -2.5420772637e-18)
(52.9678667083 -3.45723612722 1.79097883943e-18)
(53.3118160593 -3.78068899123 1.23516495278e-18)
(53.7043421422 -4.10234507727 4.78554136334e-18)
(54.1481131202 -4.41480711096 -1.39400189721e-18)
(54.6451757926 -4.7089503295 -6.3298377771e-18)
(55.1944449666 -4.97510563484 3.94850173553e-18)
(55.799647711 -5.19775917186 6.54738796322e-19)
(51.3015771358 -0.119790985663 -5.03837882687e-19)
(51.3116197765 -0.35660168211 9.77517825728e-19)
(51.3354959684 -0.591894838524 1.95426985617e-18)
(51.3721848988 -0.82877758023 1.66996133666e-18)
(51.4218673018 -1.0704339314 7.67391317217e-19)
(51.4861430557 -1.3200406909 1.00520499417e-21)
(51.5672904919 -1.58068601591 -9.60985927167e-19)
(51.6679597599 -1.85518400052 3.79013702036e-18)
(51.7912842994 -2.14585570262 2.65282148411e-18)
(51.9409918489 -2.45436274765 -4.56280219458e-18)
(52.1213978595 -2.78155351722 -4.0708982612e-18)
(52.3373401061 -3.1272626139 3.12866444235e-18)
(52.5940763366 -3.49007134802 -8.5324458818e-19)
(52.8971409706 -3.86706190842 -3.99898582215e-18)
(53.2521038906 -4.25358009061 2.50739598763e-18)
(53.6643357187 -4.64301071417 7.03578130914e-19)
(54.1383305372 -5.02665063219 7.37116750616e-19)
(54.6780955235 -5.39341319087 -5.49029501806e-19)
(55.2835731528 -5.73110143107 2.1509460895e-18)
(55.9615599862 -6.02031695217 -7.15868834549e-18)
(51.3012814721 -0.126640004466 1.69167494173e-18)
(51.3094253612 -0.376961442732 -3.58453168602e-20)
(51.3287394356 -0.626200166359 -1.43925172745e-18)
(51.3585661169 -0.878124057093 -2.41324708929e-18)
(51.399415345 -1.13650829211 7.97302230994e-19)
(51.4530572862 -1.40519116599 2.06782923299e-19)
(51.5219543249 -1.68801715287 -5.15648752498e-19)
(51.6091133059 -1.98860620991 -2.69542212115e-18)
(51.7182181941 -2.31009544537 3.64464960748e-18)
(51.8536969505 -2.65496965557 2.49295958666e-18)
(52.0207465944 -3.02487741466 -4.48280801596e-18)
(52.2253486489 -3.42037601374 -6.71293800945e-19)
(52.4742198508 -3.84062259337 4.237733168e-18)
(52.7746930969 -4.28303379323 -2.8396868494e-18)
(53.1344710347 -4.74291971343 -8.41859830558e-19)
(53.5614028051 -5.21310124351 4.48655659839e-18)
(54.0626043545 -5.68359320458 -1.70473333452e-18)
(54.645055972 -6.1411039331 -3.40288192474e-18)
(55.3105299215 -6.57027478463 4.50172624646e-19)
(56.0706074115 -6.94674759207 4.50507982388e-18)
(51.3009561989 -0.131957988699 -5.90512375105e-19)
(51.30683179 -0.392505320679 1.09295172817e-19)
(51.3203643964 -0.652510495987 1.02413259719e-19)
(51.3414841183 -0.916424488822 -2.02306963134e-18)
(51.3710726027 -1.18865222222 8.45713582206e-21)
(51.4109489493 -1.47373371778 1.34140529637e-18)
(51.4636533987 -1.77652239292 -1.11213351939e-18)
(51.5324775272 -2.10156713919 -1.16607516223e-18)
(51.6215694332 -2.45293188515 -1.50876193977e-18)
(51.7359862516 -2.83417564217 2.45654352667e-18)
(51.8818061706 -3.24811205553 1.5590758552e-18)
(52.0662333731 -3.69644437383 -4.32950314969e-18)
(52.2976217361 -4.17938198874 6.61106892328e-19)
(52.5854355426 -4.69520443393 -8.33220352664e-19)
(52.940053792 -5.23972451501 -4.43727130267e-18)
(53.3726299777 -5.80567078642 1.04917671186e-18)
(53.8939963075 -6.3820576036 4.42897825274e-18)
(54.5156446924 -6.95335739901 -3.89198967098e-18)
(55.2425068365 -7.50041679654 -3.21923357237e-18)
(56.0936333881 -7.99254149168 9.74918694095e-18)
(51.3006648726 -0.135036972125 -5.84972706251e-19)
(51.3039938394 -0.402148551118 1.81461080795e-18)
(51.31040289 -0.669188076605 1.80870495669e-18)
(51.3208823606 -0.941190918376 5.63314459968e-19)
(51.3366841055 -1.22353449672 2.00604129049e-18)
(51.3593293333 -1.52117126482 9.22798394873e-19)
(51.3912351312 -1.84034530006 -4.89024118883e-19)
(51.4361109102 -2.18672016727 -2.54326943948e-18)
(51.4984212047 -2.56549035338 1.21340744929e-18)
(51.5835623313 -2.98155405472 -1.56015994278e-21)
(51.6983276434 -3.43927414215 2.82052800039e-18)
(51.8511161923 -3.94203707098 -1.41776185738e-18)
(52.0519947962 -4.49177359246 2.16317296955e-18)
(52.3128108387 -5.08842689374 2.50130176118e-18)
(52.6471627396 -5.72922195841 -4.91299602681e-18)
(53.0704831595 -6.40772654396 -9.08666299289e-19)
(53.5987227262 -7.11270392444 3.93975897524e-18)
(54.2500960547 -7.82678131567 -2.27064123864e-18)
(55.0349059622 -8.52654929495 6.9589210933e-18)
(55.9850167658 -9.17381314049 -9.7480385833e-18)
(51.2999949868 -0.135751063202 1.80769237084e-18)
(51.2994474501 -0.404682357823 -6.4024381764e-19)
(51.2979255997 -0.673973904722 5.34780512289e-19)
(51.2960473727 -0.949260039479 -1.28401560232e-18)
(51.2957142997 -1.23663435721 -1.40691086239e-18)
(51.2979459805 -1.54247236501 -3.52745149354e-18)
(51.3043102935 -1.87341252845 8.32492822204e-19)
(51.3190956894 -2.23626855539 -1.32326485021e-19)
(51.3469140487 -2.63788565343 -1.18845100429e-18)
(51.3932042882 -3.08492108639 3.33187263037e-18)
(51.4651196489 -3.58366970763 2.03950709133e-18)
(51.5719594692 -4.13981986438 -2.29711382282e-18)
(51.725341481 -4.75792955687 -1.77979407941e-18)
(51.9395260404 -5.44078391661 4.28005377606e-18)
(52.2317095505 -6.18846878488 5.82400805061e-19)
(52.6226338659 -6.99708452303 2.76791909739e-18)
(53.1350994456 -7.85684537231 6.3954158303e-18)
(53.7971885277 -8.74988328685 -4.15842455087e-18)
(54.6275854709 -9.64823135049 -2.99084087235e-18)
(55.6781476159 -10.5046480402 4.41306586497e-18)
(51.2993149107 -0.134010419052 -1.43176542272e-20)
(51.2949363347 -0.399015886948 -1.82484380457e-18)
(51.2843342684 -0.664825807543 -6.23008102782e-19)
(51.2684383354 -0.937727704347 5.12917334321e-19)
(51.248597031 -1.22429028041 -2.96503361134e-18)
(51.2260546836 -1.53218220494 2.9133118699e-18)
(51.2026844293 -1.86844429858 1.91111193777e-19)
(51.1816260632 -2.24108727244 4.98822598134e-18)
(51.1669553966 -2.65867122409 1.06021334611e-18)
(51.1639586953 -3.12986133705 -3.08539016601e-20)
(51.1796819241 -3.66334178997 1.58987658977e-18)
(51.2236259915 -4.2677476743 6.79898123998e-19)
(51.3083389087 -4.95129803647 -2.73558680992e-18)
(51.450065973 -5.72118550063 -9.52548925993e-19)
(51.6694967826 -6.58249110767 -3.64200326679e-18)
(51.9933286415 -7.53669454203 -5.21371681119e-18)
(52.4530630478 -8.57898317232 1.08358149705e-17)
(53.0915071934 -9.69521948109 5.04076706302e-18)
(53.9410395803 -10.8559405027 -1.65494000948e-17)
(55.0882552639 -12.0049785494 4.57981475383e-18)
(51.2986803709 -0.129232838786 -3.60164190321e-20)
(51.2901930483 -0.38442441144 -5.86174140567e-19)
(51.2695734813 -0.640591203593 -1.77253869613e-18)
(51.2381160938 -0.904512878223 -1.31010319333e-19)
(51.1971239395 -1.18338612094 -7.81970219575e-19)
(51.1474952592 -1.48507571632 2.09784097484e-18)
(51.0903571313 -1.81798213568 1.50284415241e-18)
(51.0277132288 -2.19133509924 -1.81178388598e-19)
(50.9627026089 -2.61509655249 2.32134433209e-19)
(50.8997533043 -3.09991774662 -8.76277197761e-18)
(50.8450370713 -3.65720312959 2.29794224931e-18)
(50.8072795141 -4.29915486108 3.91677032988e-18)
(50.7986328116 -5.0387256697 4.39551326261e-18)
(50.8359367437 -5.88928123697 4.99257551669e-18)
(50.9421616011 -6.86360000117 2.96378143298e-18)
(51.1491809922 -7.97278327206 -5.32218152545e-18)
(51.4976530313 -9.22221645903 -2.96882895524e-18)
(52.0478475092 -10.6107837165 1.20976667281e-17)
(52.8566577502 -12.1149310296 -6.58219381031e-18)
(54.078808558 -13.6937952166 3.65351258496e-18)
(51.2980629458 -0.121238943993 4.99370210254e-19)
(51.2854943622 -0.360498133235 -8.2570771407e-19)
(51.254691389 -0.600958385874 1.28104602732e-18)
(51.207185732 -0.84942553852 -7.80178263651e-19)
(51.1441077605 -1.11327982526 3.70946266763e-20)
(51.065588417 -1.40077275215 -1.93349550628e-18)
(50.971700966 -1.72109443529 4.52552490992e-19)
(50.8631932303 -2.08435174111 -3.21343869429e-18)
(50.7416732301 -2.50169836094 9.63827466312e-19)
(50.6097231084 -2.98557901679 3.86669260865e-18)
(50.4713423499 -3.55002658147 2.28261099757e-18)
(50.332810829 -4.21104217799 5.8046255808e-19)
(50.2038242997 -4.98699448671 -6.30340250539e-18)
(50.0993908825 -5.89900046841 1.16707021456e-18)
(50.0416962854 -6.97056921118 1.59577517119e-19)
(50.0651923997 -8.22825171143 -5.24198092746e-19)
(50.2160669851 -9.69485152588 2.83225791714e-18)
(50.5703674545 -11.3988026092 -2.04286688676e-19)
(51.2093840986 -13.3180636447 1.29466514426e-17)
(52.3269384662 -15.5013667419 -1.3418111246e-18)
(51.2972481875 -0.108819608254 -1.016307645e-18)
(51.2798029689 -0.323407825605 1.15232555842e-18)
(51.2381774443 -0.539358555642 -1.32437872322e-18)
(51.1743494626 -0.763194059114 -2.06794634256e-19)
(51.0889929024 -1.00213613175 1.93107133324e-18)
(50.981162089 -1.26446371267 -1.47063739356e-18)
(50.8495900601 -1.55955281848 -3.51193986308e-19)
(50.6933751586 -1.8978885782 3.00374951663e-18)
(50.5119731098 -2.29129501955 -4.28430688203e-18)
(50.3051891195 -2.75336447495 -5.8358524678e-18)
(50.0734956218 -3.30003592762 -3.87016946872e-18)
(49.8187669697 -3.95039185158 -1.6062767003e-17)
(49.5452254435 -4.72770759065 4.97588351234e-18)
(49.2616768913 -5.6609580156 1.32396449301e-17)
(48.9827651983 -6.78604947802 -1.40271913717e-17)
(48.7393767032 -8.14916794885 0)
(48.5688385344 -9.80186821018 -1.72776296495e-17)
(48.5819950835 -11.8209885015 1.18673442053e-17)
(48.8148660903 -14.2228386539 -5.01564093416e-17)
(49.6339814304 -17.1754549748 5.12404522427e-17)
(54.5994168092 -0.17084686858 -4.17953666258e-18)
(54.7433304726 -0.172587698281 2.74531736008e-18)
(54.8870641279 -0.17378855516 2.74324319118e-18)
(55.0303495495 -0.174453488173 -2.73710606832e-18)
(55.1728944923 -0.174579845507 1.41081917422e-18)
(55.3142115691 -0.174155694195 -4.1880979675e-18)
(55.4537780674 -0.17315916249 -1.364453568e-18)
(55.591101642 -0.171568402772 4.11857473645e-18)
(55.7256994205 -0.169365177385 1.06929135521e-20)
(55.8570756439 -0.166534159499 3.88821371848e-18)
(55.9847231212 -0.163062009485 3.85717222163e-18)
(56.1081307497 -0.158937101363 -4.98872155298e-18)
(56.2267896823 -0.15414957583 -2.45378215993e-18)
(56.3401899405 -0.148691013238 1.18810769835e-18)
(56.4478268207 -0.142554510368 -2.27516258693e-18)
(56.5492001149 -0.135731714066 2.10381603419e-20)
(56.6438304863 -0.128211021554 4.19189719582e-18)
(56.7311607782 -0.119976326797 -4.99729398239e-20)
(56.81091381 -0.110998630274 1.85420214336e-18)
(56.881639736 -0.10119497372 -4.14584397495e-18)
(54.6332339682 -0.572445150667 2.52920904506e-18)
(54.7808386379 -0.5740826362 8.4960237177e-18)
(54.928657329 -0.573969715986 -1.19179220568e-20)
(55.0760977484 -0.572150098648 -2.7847095617e-18)
(55.2227675308 -0.568548015605 5.73697417874e-18)
(55.3682427498 -0.563099488259 2.84117992734e-18)
(55.5120370744 -0.555746004706 -5.65328806349e-18)
(55.6536451056 -0.546433223939 -3.38590169095e-20)
(55.7925609808 -0.535113727632 -2.22883832538e-20)
(55.9282737584 -0.521748573955 -4.05898931871e-18)
(56.0602669396 -0.506308116524 -5.77274261143e-20)
(56.1880220126 -0.48877228687 -4.11638846402e-20)
(56.3110228313 -0.469131086219 2.75742462267e-20)
(56.4287605849 -0.44738493672 2.43330245298e-18)
(56.5407400427 -0.423546774946 -3.04306464722e-21)
(56.6464814911 -0.397640996446 1.1831347768e-18)
(56.7455455448 -0.369703937521 -3.16255979234e-18)
(56.8374729296 -0.339783204336 -1.1546706085e-18)
(56.9220457933 -0.307952883117 2.84606964281e-18)
(56.9981510819 -0.274132664996 -1.15877441823e-18)
(54.7086668206 -0.940097647975 -3.09073022865e-18)
(54.8617115891 -0.94404382571 -4.3504079997e-18)
(55.0147462117 -0.945096158301 -1.21468410651e-20)
(55.1677315003 -0.94338056494 0)
(55.3202606783 -0.938786400481 1.32066235962e-20)
(55.4717678112 -0.931185583243 -2.94711889183e-18)
(55.6216964475 -0.920461435373 -4.30031100503e-18)
(55.76952051 -0.90651498157 1.40152430834e-18)
(55.9147142134 -0.889261546132 2.69847599928e-18)
(56.0567355859 -0.868630766554 1.36719656343e-18)
(56.1950303509 -0.844568006832 1.52277618512e-18)
(56.3290400005 -0.817036128675 -1.9975044855e-22)
(56.4582052757 -0.786016504933 7.5280637534e-20)
(56.5819674352 -0.751509592345 -4.40822139547e-20)
(56.6997719391 -0.713535955776 1.37225795309e-21)
(56.8110605509 -0.67213676224 0)
(56.9153013204 -0.627376080469 -2.32001382456e-18)
(57.0118602842 -0.579339377805 2.21266089768e-19)
(57.1004499504 -0.5281518407 -1.09425771114e-18)
(57.179217335 -0.47370595621 1.86525141329e-18)
(54.8129756518 -1.35291177508 3.26739677044e-18)
(54.9752922419 -1.35914681696 4.64417668052e-18)
(55.1382946482 -1.36114425366 -1.58399551604e-20)
(55.3013093147 -1.35907882797 1.54597487349e-18)
(55.4639742483 -1.35277905301 4.52994668569e-18)
(55.6258279042 -1.34205895052 -1.61632715607e-18)
(55.7862968008 -1.32675595601 -7.54105459641e-18)
(55.9447923447 -1.30673138101 2.9583750983e-21)
(56.1007357854 -1.28186532572 1.53160865121e-18)
(56.2535410643 -1.25205843942 1.51518736994e-18)
(56.4026100302 -1.2172347609 1.43944819211e-18)
(56.5473371162 -1.17734321803 2.77180661739e-18)
(56.687116736 -1.13235837188 -1.44176314998e-18)
(56.821347929 -1.08228096722 -2.63727482626e-18)
(56.9494403726 -1.02713845907 1.00620322328e-18)
(57.0708113599 -0.966984479979 -1.53365516104e-18)
(57.184923623 -0.901899793782 1.18332619076e-18)
(57.2911696144 -0.831987176418 -1.2130281806e-18)
(57.3893297821 -0.757397565437 -4.18877435093e-18)
(57.4775874968 -0.677920224752 8.73105476178e-18)
(54.9551796131 -1.77306166846 2.61116370193e-18)
(55.1299030539 -1.78214129499 -1.53872368604e-18)
(55.3050494483 -1.78572791072 -3.15705446409e-18)
(55.480726875 -1.78400989202 3.20305812315e-18)
(55.6565834418 -1.77671928635 -4.9359483624e-18)
(55.8319579072 -1.7635967082 -3.2145858993e-18)
(56.0061627295 -1.74442343497 2.60908590956e-19)
(56.1785632409 -1.71900965199 3.11207860084e-18)
(56.3485335246 -1.68718835479 4.67655973934e-18)
(56.5154229556 -1.6488201433 2.16526464992e-19)
(56.6785598314 -1.6037981828 1.37722606694e-18)
(56.8372643963 -1.55204986726 -1.51080272229e-18)
(56.9908545422 -1.49353778675 -2.66172563821e-18)
(57.1386475445 -1.42826114527 -4.36462653696e-18)
(57.2799662148 -1.35625729854 -4.2073185266e-18)
(57.4141298482 -1.27760210302 5.04590878083e-18)
(57.5405010298 -1.19241330575 1.35854864471e-18)
(57.6583137297 -1.10084602018 -9.21161469549e-20)
(57.767306275 -1.00313508206 3.35985368932e-18)
(57.8649708916 -0.899045929096 3.40272514115e-19)
(55.1251901023 -2.23399688099 -8.99422531464e-18)
(55.3156810264 -2.24759400423 -8.29204199679e-21)
(55.5072608532 -2.25414736053 1.02219366366e-17)
(55.6998184339 -2.25388300404 -3.65832814601e-21)
(55.8930096572 -2.24647234461 -1.76205483693e-18)
(56.0861489186 -2.23158257602 7.03269140215e-18)
(56.2784700899 -2.20891749818 -1.56399978569e-18)
(56.4692509943 -2.17822173461 -6.69252319155e-18)
(56.6577816037 -2.13927511482 1.79196216601e-18)
(56.8433236877 -2.09189401636 -3.58508031692e-21)
(57.0251136332 -2.03593558903 -1.75677327523e-18)
(57.2023771396 -1.9713016876 6.18943952076e-18)
(57.3743368137 -1.89793984154 -3.02590146468e-18)
(57.5402149186 -1.8158441909 -4.13402910113e-18)
(57.6992414613 -1.72505705246 -3.68982333066e-19)
(57.8506448876 -1.62566872362 -1.07282512726e-18)
(57.9937113143 -1.51782025539 4.09676147723e-18)
(58.1275854512 -1.40169657709 -9.26145486497e-19)
(58.2520315951 -1.27757630316 2.82772761557e-21)
(58.3641147191 -1.14512234817 5.20659853274e-18)
(55.3250109675 -2.73130866039 9.81242949314e-19)
(55.5351562199 -2.7506351161 1.1071415803e-17)
(55.7467946134 -2.76121099123 1.88537995806e-18)
(55.9601486575 -2.76334031679 -7.54384627863e-18)
(56.174902275 -2.75662969436 0)
(56.390191555 -2.74062526168 -1.31365236848e-19)
(56.6051097694 -2.71493036379 -5.15476186895e-20)
(56.8188301754 -2.67921378643 1.9715971861e-18)
(57.0305433393 -2.63319013126 7.64273621717e-20)
(57.2394030817 -2.57662048216 -3.73000784038e-18)
(57.4445253061 -2.50931841521 -3.65892494052e-18)
(57.6450098123 -2.43115457285 3.84113339174e-18)
(57.8399537004 -2.34205805561 8.22145218779e-18)
(58.0284512104 -2.24201668957 7.39054558804e-18)
(58.209601632 -2.13107869668 -6.98892840699e-18)
(58.3824955462 -2.00935286627 -7.48263227274e-18)
(58.5462882661 -1.87701309079 1.71434640243e-18)
(58.6999413239 -1.73429075991 -3.56958425715e-19)
(58.8431909079 -1.58154343543 -1.2155373541e-18)
(58.9723103233 -1.41834539203 5.53188191464e-18)
(55.5471239882 -3.28053734731 -4.97800555434e-18)
(55.7811920409 -3.30801961524 -2.96418268432e-21)
(56.0177802657 -3.32476584396 4.09249163831e-18)
(56.2566890952 -3.33118965735 4.86956960541e-20)
(56.4978142088 -3.32680501163 -4.21083011403e-18)
(56.7403301605 -3.31100974167 6.16331653266e-18)
(56.9831353856 -3.2832825902 6.52586040176e-18)
(57.2252276208 -3.24319764944 -3.999480895e-18)
(57.4656646312 -3.19038877651 -1.17403459462e-21)
(57.7034622207 -3.12454776543 -4.14631168465e-18)
(57.9375868707 -3.04543329284 3.8351858382e-18)
(58.1669821778 -2.95287641539 2.5281052984e-18)
(58.3905874599 -2.84678113927 -2.40535004502e-18)
(58.6073398416 -2.72712381533 -2.09757608152e-18)
(58.8161820335 -2.59395399995 -4.65845036221e-18)
(59.0160443694 -2.44739377167 3.79390089398e-18)
(59.2059365679 -2.28764263987 -3.47781103835e-18)
(59.384630174 -2.11496829343 -1.64087091779e-18)
(59.5518551368 -1.92979107396 3.15990030123e-18)
(59.7030702799 -1.73154296862 5.49133597996e-18)
(55.7871005466 -3.88933311886 -1.22685639867e-18)
(56.0498403047 -3.92750766882 -4.53364011523e-18)
(56.3162771621 -3.95289666615 4.60190441128e-18)
(56.5859510977 -3.96590222987 2.3088107704e-18)
(56.8591081066 -3.96576315071 -6.82664880028e-18)
(57.1347893835 -3.95168998426 7.03305682396e-18)
(57.4116112873 -3.92304362663 4.18171502666e-18)
(57.688353124 -3.87929789429 -4.85228748534e-18)
(57.9639093615 -3.81999390109 -2.22730296116e-18)
(58.2371274511 -3.74474415323 -6.70405608501e-18)
(58.5067851075 -3.65324561724 4.60418618629e-18)
(58.771631418 -3.54528496758 -3.60016733373e-19)
(59.0304148978 -3.42073809718 -1.69896193502e-19)
(59.2818825068 -3.27956756973 2.03141003118e-18)
(59.5247872355 -3.12182204643 -3.84697421165e-18)
(59.7578628934 -2.94763414205 2.73627059097e-18)
(59.9799356007 -2.75722573288 2.61871729472e-19)
(60.1895246163 -2.55089659051 1.34913502454e-21)
(60.3863270596 -2.32913226271 -2.66908128388e-19)
(60.5647245882 -2.09116192595 2.99013462116e-18)
(56.0359258788 -4.57098083738 -9.51414478896e-18)
(56.3325578246 -4.62388026408 7.44593453798e-18)
(56.6342230385 -4.66167634414 1.00454844273e-17)
(56.9406973404 -4.68427291768 -2.60360940071e-18)
(57.2525263687 -4.69090459654 1.36070248522e-19)
(57.5683744601 -4.68070891328 -7.54457364491e-18)
(57.8864517346 -4.65285062166 -5.72990981941e-18)
(58.2052857696 -4.60662074232 1.06797220225e-17)
(58.5235703231 -4.54144152077 1.30813468874e-17)
(58.8399301382 -4.45684388299 -5.4238811424e-18)
(59.1529038546 -4.35246230236 -7.27100435266e-18)
(59.461003168 -4.22803880286 -2.94604079145e-18)