/*--------------------------------*- C++ -*----------------------------------*\
  =========                 |
  \\      /  F ield         | OpenFOAM: The Open Source CFD Toolbox
   \\    /   O peration     | Website:  https://openfoam.org
    \\  /    A nd           | Version:  7
     \\/     M anipulation  |
\*---------------------------------------------------------------------------*/
FoamFile
{
    version     2.0;
    format      ascii;
    class       volVectorField;
    location    "1";
    object      U_0;
}
// * * * * * * * * * * * * * * * * * * * * * * * * * * * * * * * * * * * * * //

dimensions      [0 1 -1 0 0 0 0];

internalField   nonuniform List<vector> 
7540
(
(51.3024190215 -0.00368283785145 -4.78931629274e-20)
(51.3173502856 -0.0112539813104 1.81203339693e-20)
(51.351808232 -0.0192538553084 1.00244918217e-20)
(51.4033714319 -0.0275667568584 -3.58079206029e-20)
(51.4708361814 -0.0361242614698 2.3797969073e-19)
(51.5543497817 -0.0449187314032 3.3129673529e-19)
(51.6543399676 -0.0539596711316 1.74118404419e-20)
(51.7710017289 -0.0632479705632 4.73653116265e-19)
(51.9043732125 -0.0727710626718 7.24000358e-20)
(52.0544763775 -0.0825011048099 -2.19586946452e-18)
(52.221312334 -0.092391141637 -6.86056875665e-20)
(52.404780722 -0.102371163486 2.03226385543e-18)
(52.6046090886 -0.112345512808 3.13722580549e-20)
(52.8203066206 -0.122191573333 8.41314373508e-19)
(53.0511249366 -0.131759688234 8.18113809601e-19)
(53.2960189954 -0.140873678299 -1.81428917582e-18)
(53.5536026495 -0.149335705708 -1.79630213205e-18)
(53.8221538215 -0.156917332571 9.27989352833e-19)
(54.0994752472 -0.163424284626 1.04595978488e-18)
(54.3836356392 -0.168436176037 -2.8577282871e-18)
(51.3021105857 -0.0163215959917 -5.74054734049e-20)
(51.3158314884 -0.0488767679598 -2.32538528098e-19)
(51.3491144216 -0.0813811937423 -3.0284078232e-19)
(51.3999514581 -0.113802571686 3.62050727247e-19)
(51.4670087921 -0.146186693068 -7.62006288669e-19)
(51.5503046088 -0.178654271183 -2.57731393713e-19)
(51.6502519249 -0.211314587113 6.94011508794e-20)
(51.767079279 -0.244217398993 -9.08746645794e-19)
(51.9008647704 -0.277344101582 -3.4370043441e-19)
(52.0516741527 -0.310604067695 2.30485572483e-18)
(52.2195597774 -0.343825598786 1.10119706889e-18)
(52.4044782943 -0.376747373198 -2.08066947869e-18)
(52.6062157994 -0.4090148935 -2.19841961324e-18)
(52.8243378697 -0.440180433219 8.06888887205e-19)
(53.0581471852 -0.469707249902 5.30264021745e-18)
(53.3066399686 -0.496975732087 -8.60361874372e-19)
(53.5684664406 -0.521302466261 9.70560526731e-19)
(53.841886308 -0.54193030717 3.77860017278e-18)
(54.1247764775 -0.558149692831 -6.95370792714e-18)
(54.4144979525 -0.568734957511 -6.34526074363e-19)
(51.302207977 -0.027036466536 1.20305731885e-19)
(51.3163505638 -0.0803764492316 2.40720047337e-19)
(51.3501785987 -0.132852506795 -4.48089173982e-19)
(51.4015722968 -0.184836941299 1.10498988995e-18)
(51.4692036666 -0.236703894937 9.96216269059e-19)
(51.5531438339 -0.288759184705 -1.09687347849e-18)
(51.6538868862 -0.341223531678 3.95307728348e-19)
(51.7717518723 -0.394217723809 3.32643443534e-19)
(51.9069075753 -0.447749716239 -3.40009019208e-19)
(52.0595122551 -0.501701545007 1.18720262024e-19)
(52.229714715 -0.555814497623 2.0664499627e-19)
(52.4175695839 -0.609678599958 8.98019091248e-19)
(52.6229583332 -0.662727063189 -4.82016168316e-19)
(52.8455356337 -0.714234519449 -4.05070468932e-18)
(53.0846829972 -0.763323118414 -5.14456436295e-20)
(53.3394605021 -0.80897139591 2.63087021309e-18)
(53.6085512128 -0.850045092806 1.02030488601e-18)
(53.8902926421 -0.885279165475 5.08130864386e-18)
(54.1823954431 -0.913516694812 -4.91321039367e-18)
(54.4835748381 -0.932650140122 -9.39101883152e-19)
(51.3022353482 -0.0376960170686 8.92051938646e-22)
(51.3164752163 -0.112288211283 -7.75926898464e-20)
(51.350307401 -0.186039344823 -4.37631287512e-19)
(51.4016228458 -0.259448752981 -1.78238530531e-18)
(51.4692359561 -0.333001790836 1.14024570378e-18)
(51.5533565771 -0.407088529724 8.08978761891e-19)
(51.6545923658 -0.481992378387 -1.52913889294e-18)
(51.7733784963 -0.557870924668 4.57573701874e-19)
(51.9100161339 -0.634728810679 4.58338186404e-19)
(52.0648102813 -0.712391078442 -8.68409661452e-19)
(52.2380653191 -0.790480525066 6.90150340776e-19)
(52.4299948494 -0.868402407479 2.79135602897e-18)
(52.6406377732 -0.945332859476 5.55950799947e-19)
(52.8697985125 -1.02021465875 -3.57378972912e-18)
(53.1169929355 -1.0917659133 4.21032964595e-18)
(53.3813911289 -1.15849222861 -1.04349653339e-18)
(53.661756456 -1.21872677254 -3.07009107162e-18)
(53.9564146357 -1.27060798268 -2.1173134293e-18)
(54.2631259626 -1.31241367964 1.71828430832e-19)
(54.5795822351 -1.34104964903 -7.82674812303e-19)
(51.3022295267 -0.0484196507735 8.34759978748e-19)
(51.3164361305 -0.14431701609 -2.85003313063e-19)
(51.3502084212 -0.23925092528 3.74499909475e-19)
(51.4015031956 -0.33381740581 -2.27101036983e-19)
(51.4692415058 -0.428639237764 -1.70190152106e-18)
(51.5537492345 -0.52426220713 -3.32256371771e-19)
(51.6557569976 -0.621106557497 -6.34486730234e-19)
(51.7758452726 -0.719426357166 -8.28087318629e-19)
(51.9144885993 -0.819271886864 1.26093368308e-18)
(52.0721872386 -0.920454438631 -6.20999574249e-19)
(52.2494543852 -1.02251663633 -1.30136015025e-18)
(52.44672037 -1.12470824921 -3.06980740209e-18)
(52.6642428655 -1.22596703578 2.44548397972e-18)
(52.9020370884 -1.32491286225 -3.2831038165e-19)
(53.1598102549 -1.41985688842 -7.58185302767e-19)
(53.4368971839 -1.50881499879 4.63197177004e-18)
(53.7321724628 -1.58955802062 2.04988573575e-18)
(54.0440860781 -1.65958407758 -1.16644003068e-18)
(54.370311864 -1.71654953592 -1.29281709801e-18)
(54.7092953856 -1.75631236219 -1.73933617277e-18)
(51.3022145154 -0.0591034462353 -7.12703329314e-19)
(51.3163299986 -0.176196493467 3.15060474986e-19)
(51.3499142919 -0.29223618111 -5.52194679722e-19)
(51.4009941439 -0.408025694687 8.3508680324e-19)
(51.4685970352 -0.524406313695 2.65682555132e-19)
(51.5531877285 -0.642129615262 1.48654414775e-18)
(51.6556663444 -0.761786826992 1.13346264876e-21)
(51.7768153551 -0.8837536709 -1.88685826029e-18)
(51.9173436033 -1.0081442389 -1.0554319472e-18)
(52.0780132057 -1.13476774416 1.28268062811e-18)
(52.2596204164 -1.26308847358 1.70178330657e-18)
(52.4628934848 -1.39219008607 -1.21257185834e-18)
(52.6883935447 -1.52074913568 -3.0611418887e-18)
(52.9364330236 -1.6470251934 8.66889753996e-19)
(53.2069946554 -1.7688659339 -3.57046011228e-18)
(53.4996528875 -1.88372110556 -1.80804260245e-19)
(53.8134621512 -1.98870615123 4.53454801809e-18)
(54.1469735967 -2.0805647141 1.47691466824e-18)
(54.4978302537 -2.15623837388 -8.55752684085e-19)
(54.8642326483 -2.21037804677 -8.49731911815e-18)
(51.3021846828 -0.0696759674368 -9.41739047548e-19)
(51.316111116 -0.207764892371 6.3822058548e-20)
(51.3492719019 -0.344790921143 -6.26261831016e-19)
(51.3997966596 -0.481813455986 0)
(51.4668573078 -0.619923515781 -1.96567742049e-19)
(51.5510925119 -0.760102330262 -8.16892443297e-22)
(51.6536103918 -0.903141493412 2.77609050384e-18)
(51.7754414065 -1.04957434327 1.20463367124e-18)
(51.9175831075 -1.19961636589 -1.99881422249e-18)
(52.0811236434 -1.35310949916 -2.1255574023e-18)
(52.2672172354 -1.50946800208 3.29868245425e-18)
(52.4769745078 -1.66762953473 -4.5494204991e-19)
(52.711352766 -1.8260175363 -3.55706983697e-18)
(52.9710614316 -1.98252036189 1.18004835941e-18)
(53.2564614515 -2.13448801076 4.1392793306e-18)
(53.5674678657 -2.27874450773 -2.78034717175e-18)
(53.9033960619 -2.41166295877 -1.61777985766e-18)
(54.2630159591 -2.52911279124 -3.29968736103e-18)
(54.6439495661 -2.62715547898 2.38086499751e-22)
(55.0448272442 -2.69898561824 -3.86880266855e-18)
(51.3021328986 -0.0800477022685 3.42893794917e-19)
(51.315729631 -0.23875891663 -4.70805966933e-19)
(51.3481350697 -0.396484538393 -5.00439440496e-19)
(51.3976169029 -0.554592443951 -7.98986456378e-19)
(51.4635247548 -0.71447715648 -7.31042254005e-19)
(51.5466958822 -0.877407607623 4.13533383964e-19)
(51.6484758109 -1.04443807593 7.7332547688e-19)
(51.7701865654 -1.21632298752 1.01299019148e-18)
(51.9131736232 -1.39343951581 9.5934173216e-19)
(52.0789253185 -1.57571573108 8.29112872123e-19)
(52.2690429892 -1.76255994693 1.00872977849e-18)
(52.48512451 -1.9527947901 7.0148256086e-19)
(52.7286439485 -2.14460209084 -2.15510111383e-18)
(53.0008414963 -2.33548453078 -2.86233063016e-18)
(53.3025984159 -2.52224961737 1.94158012338e-18)
(53.6343144031 -2.70101430304 -1.41279313554e-18)
(53.9957026852 -2.86728364816 -1.45176549111e-18)
(54.3858571676 -3.01588089024 5.1478521535e-18)
(54.8024478257 -3.14180481311 2.02266989064e-18)
(55.244438512 -3.23655820315 1.43349378814e-18)
(51.3020514628 -0.0900938333053 3.99881539666e-19)
(51.3151287244 -0.26880662123 -1.68585945004e-18)
(51.3463272655 -0.446711769216 9.58097524888e-19)
(51.3940893645 -0.625549164994 1.91271276639e-19)
(51.4579755523 -0.807080123877 -7.44560142085e-19)
(51.539045409 -0.992926314749 -1.46275471414e-18)
(51.6389112325 -1.18447286439 4.29336353364e-19)
(51.759231865 -1.38276594988 8.55057870856e-19)
(51.9017634738 -1.58841490128 -1.70972434574e-18)
(52.0684746195 -1.80150133355 -4.80743066808e-21)
(52.2615128577 -2.02148916631 3.09127889705e-18)
(52.4830843977 -2.24713663051 -1.24181687783e-18)
(52.7353244786 -2.47641624391 -4.98208749053e-20)
(53.0201706044 -2.70645074425 -1.23639332129e-19)
(53.3392080645 -2.93347481365 -2.84822446096e-18)
(53.6935190312 -3.15281978802 9.14447058615e-19)
(54.0834051907 -3.35898635213 7.2871228584e-20)
(54.5084817077 -3.54555240574 7.79817420462e-19)
(54.9665490148 -3.70617928946 1.11178624315e-21)
(55.4573431307 -3.83032837269 -1.24756086422e-18)
(51.3019314851 -0.0996495870768 9.21055090217e-19)
(51.3142427384 -0.297416646418 9.29973189532e-19)
(51.3436449952 -0.494664500392 -6.24142710209e-19)
(51.3887955505 -0.693575898992 7.04020101728e-19)
(51.4494997256 -0.89634904063 2.29002447891e-18)
(51.5270571936 -1.10503107441 -4.66276201288e-19)
(51.6233668417 -1.32141918833 -7.2413389336e-19)
(51.7404614793 -1.54694241639 3.29607942655e-19)
(51.8805668394 -1.78253956193 5.12984497942e-19)
(52.0462123689 -2.02854498826 -3.99088127897e-18)
(52.2401972805 -2.28457515643 1.87105066492e-18)
(52.4654726569 -2.54941215869 3.23655137419e-18)
(52.7250076134 -2.82088914753 -5.79079451403e-18)
(53.021647226 -3.09578838493 -3.54389724691e-18)
(53.3579255633 -3.36976500549 6.85317210887e-18)
(53.7358802862 -3.63729520841 -4.13803680219e-19)
(54.1566804257 -3.89172753364 -3.21203416036e-18)
(54.620760443 -4.12515368763 6.48107452309e-19)
(55.12619565 -4.32955758988 -3.10579510825e-18)
(55.6739570297 -4.49186263493 1.3462661411e-18)
(51.3017633316 -0.108506236635 -4.81774347607e-19)
(51.3130014381 -0.323964362016 2.49120307296e-18)
(51.3398693947 -0.539305809823 -2.18224647479e-19)
(51.3812802432 -0.757232012516 -4.7943786043e-19)
(51.4373175156 -0.980453263841 -5.2279823057e-19)
(51.5095299315 -1.21152505364 1.04708311433e-18)
(51.6001068344 -1.45275450471 1.43475798411e-19)
(51.711476515 -1.7060646516 -5.47441830918e-19)
(51.8463823055 -1.97284355583 5.94834002615e-19)
(52.0079899461 -2.25380864689 -5.80140960825e-19)
(52.199857872 -2.54886845809 -7.98337556177e-19)
(52.4258317451 -2.85696752986 1.95756101786e-18)
(52.6899155704 -3.17592350024 3.87091695324e-18)
(52.9961205558 -3.50227167057 -5.19279135811e-19)
(53.3482458116 -3.83112973846 -4.05712879764e-18)
(53.7496584518 -4.15608415221 -5.02890812758e-19)
(54.2027931262 -4.46918746987 -2.50671150613e-18)
(54.7093626491 -4.76077092036 2.37155998842e-18)
(55.2679903346 -5.02072402559 2.90797463699e-18)
(55.8817047982 -5.23279187511 -2.12660666714e-19)
(51.3015372394 -0.11641151542 0)
(51.3113338977 -0.34767844594 -5.22746224305e-19)
(51.3347787339 -0.579352165136 -3.93186447006e-22)
(51.3710798103 -0.814731271487 5.7451031789e-19)
(51.4206259083 -1.05709447515 -3.27976051079e-19)
(51.4852030306 -1.30958718856 -5.6620235429e-19)
(51.5672729479 -1.57514691684 -5.86881986142e-19)
(51.6696656926 -1.8563364676 6.07835143991e-19)
(51.7956723314 -2.15514290102 -1.25500259499e-18)
(51.9491453116 -2.47283118719 -8.51127356391e-19)
(52.1344915846 -2.80979239653 -6.59239576006e-19)
(52.3566019524 -3.1653417602 -1.83602581748e-18)
(52.620739386 -3.53748895818 -3.35102710352e-18)
(52.9323895124 -3.92270800359 4.77999643898e-18)
(53.2970174776 -4.31571338895 3.05184386144e-18)
(53.7198246744 -4.70924472689 7.31141142305e-19)
(54.2050783686 -5.09395603607 3.48589873585e-18)
(54.7564524294 -5.45811909736 4.70589250178e-18)
(55.3735679977 -5.78900531616 -6.61006979533e-18)
(56.0625536154 -6.06633294794 1.98669448614e-18)
(51.3012510011 -0.123093785092 5.45415335953e-19)
(51.309191208 -0.367636412919 3.68933339273e-20)
(51.3281563634 -0.613243040088 -8.66017119994e-19)
(51.3577406876 -0.863897420471 -8.01917909489e-19)
(51.3986670702 -1.12346832206 3.08029894119e-19)
(51.4528866531 -1.39575460776 1.01610086969e-18)
(51.5230553811 -1.68444591416 -6.76677367151e-19)
(51.6123863307 -1.99289866492 2.3582352832e-18)
(51.7247377418 -2.32388604004 1.20835961453e-18)
(51.8646673304 -2.6794528117 -2.16348775537e-19)
(52.0374773764 -3.06073780969 1.80885983941e-18)
(52.2492264759 -3.46772194523 2.24177582335e-18)
(52.5066606338 -3.89892667365 -2.39180142104e-18)
(52.8170857253 -4.3510883698 -5.20479350257e-18)
(53.1881229565 -4.81880620986 3.85231710436e-19)
(53.6274783658 -5.29416762638 1.35521983973e-18)
(54.1420622982 -5.76644480388 -2.23013151915e-18)
(54.7385439617 -6.22158877839 4.50623328177e-18)
(55.4183485282 -6.64359362206 1.1184643522e-17)
(56.1923595665 -7.00697052324 -7.60110649486e-18)
(51.300949102 -0.128254995496 -3.61722818687e-21)
(51.3066881702 -0.382861565563 6.21684745361e-19)
(51.3199205189 -0.639284335658 6.36689001989e-19)
(51.340919835 -0.902220984868 -1.88798428015e-18)
(51.3707989996 -1.17619600368 -1.98514812373e-18)
(51.4115382637 -1.46570423843 1.60305308502e-19)
(51.4658563978 -1.77544869272 1.64032319323e-18)
(51.5372687881 -2.10965918984 -9.93025399284e-19)
(51.6301261076 -2.47200960583 2.17696150258e-18)
(51.7496379294 -2.86560746355 7.60999247758e-19)
(51.9020072559 -3.29271341985 -5.00262135063e-19)
(52.0945375508 -3.75439351487 1.26855714332e-18)
(52.3356405147 -4.25015858363 1.48323701536e-18)
(52.634785442 -4.77754088245 -3.03729082726e-18)
(53.0023068472 -5.33156482357 -1.45189234497e-18)
(53.4492614451 -5.90413583203 5.69667864725e-18)
(53.9863238301 -6.48342401778 4.39980047996e-18)
(54.6247408987 -7.05301900274 -1.34456622915e-18)
(55.3691381577 -7.59298386384 -3.22728213134e-18)
(56.2380149336 -8.07121014825 -1.19241560128e-18)
(51.3006601075 -0.131194294066 -5.82522343217e-19)
(51.3038978941 -0.392290112263 0)
(51.3101189337 -0.655861175947 -6.03964922456e-19)
(51.3206205673 -0.927245073063 6.95448560736e-19)
(51.3368989558 -1.21198101457 -5.81596139734e-20)
(51.3606191413 -1.51485661341 -3.74456015462e-18)
(51.3944259924 -1.84215035161 1.60804757617e-18)
(51.4423012237 -2.19914093954 -2.77759667103e-18)
(51.5088577347 -2.5905518876 0)
(51.5996528465 -3.0208009915 -5.46035176921e-20)
(51.721662537 -3.49368485739 -1.84913153443e-18)
(51.8834200557 -4.01189859163 -1.82163200705e-18)
(52.0950750397 -4.57660448658 2.02226392261e-18)
(52.3685208642 -5.18694384058 -1.53844267066e-18)
(52.7173697464 -5.83929408756 -3.51877669143e-18)
(53.1570272548 -6.52632122541 5.05230640233e-18)
(53.7033606959 -7.23584969534 -3.08105782598e-18)
(54.3744484547 -7.94950770074 4.37391003803e-18)
(55.180384678 -8.64297045369 1.00432796043e-17)
(56.1527679636 -9.27640619206 4.70262799363e-18)
(51.299978149 -0.131829431593 -5.85559604142e-19)
(51.2993639269 -0.39469887925 5.69622721781e-19)
(51.297839212 -0.66070155079 -1.04687860415e-21)
(51.2961553038 -0.935772140514 -1.86881102499e-18)
(51.2965955547 -1.22616660874 1.3017959956e-18)
(51.3001205314 -1.53826459891 6.93725539988e-19)
(51.3084510425 -1.87853510802 -1.57084744798e-18)
(51.3264931949 -2.25348110842 6.03070080099e-20)
(51.358961779 -2.66952187901 6.48368855189e-19)
(51.4113616642 -3.13271432513 2.83641497335e-18)
(51.4910565486 -3.64877188836 5.41394423905e-19)
(51.6075644686 -4.22268911514 -7.25781106336e-19)
(51.7726165235 -4.85819441775 1.27793924897e-18)
(52.0005424344 -5.55721517562 -2.12139258607e-19)
(52.3086241738 -6.31893842519 -7.43571347834e-18)
(52.7176764223 -7.13850518743 -1.27174779239e-19)
(53.250520018 -8.00512250886 2.76911577931e-18)
(53.9352660458 -8.89983332867 3.58046650941e-19)
(54.7904970187 -9.79363492605 -7.03790341418e-18)
(55.8682096981 -10.6374349306 -9.34429466765e-18)
(51.2993052349 -0.130029006165 2.30373202804e-18)
(51.2948744754 -0.388976646143 -5.51219375875e-19)
(51.2842697628 -0.651721573641 9.86662357514e-19)
(51.2686393967 -0.924858760781 -4.11803607491e-20)
(51.2495693202 -1.21513083642 -8.82184490919e-19)
(51.2284897137 -1.53036799809 6.28961211669e-18)
(51.2075015187 -1.87722446986 -1.69535922236e-18)
(51.18998739 -2.26346647727 1.72813071148e-18)
(51.180244389 -2.69726909411 -7.81490304497e-19)
(51.1836898747 -3.18671198271 7.10536130898e-20)
(51.2075037151 -3.73980753627 1.29094394751e-18)
(51.2615133408 -4.36445802755 2.37018849342e-18)
(51.3584741274 -5.06804864746 -1.8831290804e-18)
(51.5147227517 -5.85690532691 1.99568827578e-18)
(51.7510939523 -6.73515836512 -6.48248262353e-18)
(52.0944626349 -7.70330333267 -5.22354042697e-18)
(52.5764948807 -8.75549954033 -9.01018339864e-18)
(53.2402621588 -9.87650147806 1.66839384604e-18)
(54.1182494025 -11.0357531985 1.2980871978e-17)
(55.2978632681 -12.1750367588 -2.14998050074e-17)
(51.2986718391 -0.125204685029 4.65049605703e-19)
(51.2901419618 -0.374384367285 -7.99024250295e-19)
(51.2695831968 -0.627730447814 9.31918720208e-20)
(51.2384928707 -0.892388549832 9.63704709842e-19)
(51.1983671648 -1.17576020843 1.24473578694e-18)
(51.1502831818 -1.48574749702 -1.90357349885e-18)
(51.0955619918 -1.83055881727 -8.24414146684e-19)
(51.0364533169 -2.21912771514 -2.48977324299e-18)
(50.9763473965 -2.66096327547 -2.75088519212e-18)
(50.9198706452 -3.1661924583 -2.6903263944e-18)
(50.8733962629 -3.74549378094 -8.54321672393e-21)
(50.8459084051 -4.41029263082 3.76579330972e-18)
(50.8497205572 -5.17274260985 1.41759669086e-18)
(50.901836085 -6.04532612663 6.08505005883e-18)
(51.0254838952 -7.03985997638 2.54255958202e-18)
(51.2528148762 -8.16651551193 -1.12360629603e-17)
(51.6248006803 -9.42966816258 6.14476415544e-19)
(52.2022013321 -10.8272473962 -1.42752195143e-17)
(53.0424486194 -12.3345054053 1.00065678985e-18)
(54.3017913971 -13.90897202 -1.4536372149e-18)
(51.2980590968 -0.117184922637 -2.57369486758e-18)
(51.2854775061 -0.350489446007 1.59393188845e-18)
(51.2547823576 -0.58838290842 -1.43128865816e-19)
(51.2076821176 -0.83806540439 2.20042566159e-19)
(51.1454767448 -1.107138241 1.80911294529e-18)
(51.0684748355 -1.40390380522 -2.86231941454e-18)
(50.9769543866 -1.73739557448 -2.11056000125e-18)
(50.8718923022 -2.11740302074 -2.41486481959e-18)
(50.7551182198 -2.55463743553 2.20828078162e-18)
(50.6294174024 -3.06098282712 8.51862162506e-19)
(50.4989914603 -3.64978084725 2.52178764786e-18)
(50.3703476327 -4.33626973665 -9.17028100942e-19)
(50.2534083852 -5.13801909737 1.00392980654e-18)
(50.1634487863 -6.0752560723 -7.12263302845e-18)
(50.1229018755 -7.17060328436 8.71952409059e-18)
(50.1665806123 -8.44976446252 -2.58647336333e-18)
(50.3409809796 -9.93459414771 -4.91063217337e-18)
(50.7230905432 -11.6528694482 7.62971089379e-18)
(51.3945232407 -13.5811022912 1.38924761439e-17)
(52.5512019009 -15.7680572286 -1.74996721563e-17)
(51.2972475693 -0.104761424586 -2.33859424476e-18)
(51.2798055713 -0.313487663105 3.78520273678e-19)
(51.238319929 -0.527144878333 -3.79688098849e-19)
(51.1749189556 -0.752673532048 3.40663740312e-18)
(51.0904161573 -0.997531040983 -2.43489170359e-18)
(50.9840255213 -1.27005988189 -1.02044837276e-18)
(50.8546637656 -1.57949918322 1.05212603261e-18)
(50.701626754 -1.93603214889 5.50056981278e-18)
(50.5245711668 -2.3510426815 5.05168985583e-18)
(50.3235020489 -2.83755607615 -3.493985858e-18)
(50.0990931948 -3.41083110816 -3.08558491339e-18)
(49.8534328157 -4.0891832674 -3.28705802065e-18)
(49.5909595589 -4.89507525701 1.15005861996e-18)
(49.3207211234 -5.8566392396 2.90944553745e-18)
(49.0575886198 -7.00896806862 1.00809989098e-18)
(48.8329246872 -8.39745416154 1.36648426722e-17)
(48.6841481418 -10.0729593842 2.33581836878e-18)
(48.724078093 -12.111769327 -1.29677949768e-17)
(48.986328481 -14.5300148699 5.05460041423e-17)
(49.8468453994 -17.4940717952 1.67253375181e-17)
(54.5987411156 -0.171559334444 7.22311453434e-19)
(54.7424445378 -0.173077096971 5.41356841747e-21)
(54.8857880714 -0.173996919016 -4.05772863807e-18)
(55.0284953782 -0.174348329569 2.71301177454e-18)
(55.1701837416 -0.174135350736 4.0325166109e-18)
(55.310333813 -0.173342458834 -4.00133353272e-18)
(55.4484179268 -0.171946799109 1.06721855082e-20)
(55.5839308969 -0.16992874097 9.0243365771e-20)
(55.7163718079 -0.16727294898 2.48521831797e-18)
(55.8452295904 -0.163966947088 2.41437870946e-18)
(55.9699859584 -0.160000185522 -3.58408597319e-18)
(56.0901227255 -0.155364139977 -1.25981166491e-18)
(56.2051262304 -0.150052214117 1.8709266493e-20)
(56.3144832449 -0.144059550716 2.31672079238e-18)
(56.4176923885 -0.137382725854 1.0608634974e-18)
(56.5142584482 -0.130015864518 -1.0303491729e-18)
(56.6037075421 -0.12195028825 8.5135819866e-21)
(56.6854919947 -0.11317132617 0)
(56.7593544293 -0.103651603742 -3.412108218e-18)
(56.8238250982 -0.0933113685604 2.49494318366e-18)
(54.6341519967 -0.573409392258 1.80594104851e-18)
(54.7817101039 -0.574271559888 -5.9030099693e-21)
(54.9292829581 -0.573233593541 9.40066348662e-20)
(55.076160383 -0.570383153065 -1.35549862573e-18)
(55.2219706659 -0.565667400621 -1.0364246094e-19)
(55.3662929552 -0.559024093947 1.37260677434e-18)
(55.5086163767 -0.550394152613 3.92056188089e-20)
(55.6484107574 -0.539727532732 -3.07439445523e-20)
(55.7851530423 -0.526984248193 8.41134417917e-20)
(55.9183199273 -0.512134068142 2.47821969478e-18)
(56.0473847522 -0.495156746083 -5.50497992866e-21)
(56.1718207339 -0.476042611609 -1.12085762877e-18)
(56.2911070811 -0.454792822519 1.02754379756e-18)
(56.4047344566 -0.431419877615 -1.20243484695e-18)
(56.5122108788 -0.405949630856 -2.08224981029e-18)
(56.613064193 -0.378418653556 1.05417848525e-18)
(56.7068673232 -0.34887552497 9.34770105651e-19)
(56.7931774855 -0.317379475336 -9.19875121352e-19)
(56.8718029221 -0.284017915962 0)
(56.9416349125 -0.248729727535 -4.43589587558e-18)
(54.7121519234 -0.942052960128 -2.67975778391e-19)
(54.8650987348 -0.944643239769 6.40188281286e-22)
(55.01796472 -0.944186768667 2.73382891796e-18)
(55.1704461639 -0.940815230123 -1.322644364e-18)
(55.3221274502 -0.934404052157 1.39514051099e-18)
(55.4724690173 -0.924828622638 2.72427510593e-18)
(55.620903202 -0.91198409045 -4.18082515117e-18)
(55.7668757258 -0.895784148617 2.64998827112e-18)
(55.9098382635 -0.876156713993 5.29388567822e-18)
(56.0492338308 -0.853045672935 -4.04427946831e-18)
(56.1844969927 -0.826412874852 -2.56908722586e-18)
(56.3150602402 -0.796239450616 -4.95137550782e-18)
(56.4403585637 -0.762526404304 -3.69043399474e-18)
(56.559831312 -0.725295122282 4.61977021404e-18)
(56.6729255919 -0.684588138403 3.50086455066e-18)
(56.7790881127 -0.640469274263 -5.48216960084e-20)
(56.8777959162 -0.593025508608 8.10960279827e-19)
(56.9684236129 -0.542365343865 -3.26969291861e-21)
(57.0507090379 -0.488636439462 -4.60792790649e-18)
(57.122770882 -0.431767758435 2.35566809123e-18)
(54.820762543 -1.35551209014 1.65298503203e-18)
(54.9832817396 -1.35988039653 1.48987302051e-18)
(55.1459958559 -1.35973657343 1.94250718838e-21)
(55.3084658558 -1.35526485563 -1.46407527888e-18)
(55.4703252013 -1.34631549154 1.53937479919e-18)
(55.631041085 -1.33272097817 1.37174119854e-18)
(55.7899972053 -1.31433274346 -1.42546419845e-18)
(55.9465864029 -1.29102852196 1.47631611872e-18)
(56.1002138088 -1.262708451 -7.1260830549e-18)
(56.2502765441 -1.22929592949 -2.80207660275e-20)
(56.3961618712 -1.19073988955 6.9502703979e-18)
(56.5372537609 -1.14701613243 0)
(56.6729405935 -1.09812797717 2.30656693462e-19)
(56.8026195126 -1.04410654706 2.74395088022e-18)
(56.9257027521 -0.985010948684 -2.15271401495e-18)
(57.041614979 -0.920927389457 -4.47399585851e-18)
(57.1498319118 -0.851969619008 2.37008127892e-18)
(57.2497618996 -0.77827385223 -1.11811574605e-18)
(57.3412179715 -0.700021960452 -3.63217956076e-18)
(57.4223672713 -0.617049394432 5.79518154808e-18)
(54.968366019 -1.77672014472 -4.38374692137e-18)
(55.1431023643 -1.783326261 6.95808682855e-21)
(55.3183240542 -1.78404648728 4.62158370871e-18)
(55.4937112152 -1.77910556466 3.0396524379e-18)
(55.6688331898 -1.76827951347 -6.13331657174e-18)
(55.8430729706 -1.75133065338 7.22542039761e-20)
(56.0157474543 -1.72805352625 3.04393472233e-18)
(56.186189128 -1.69827737483 -3.25877161733e-18)
(56.3537414104 -1.66186068896 3.04586384494e-18)
(56.5177336487 -1.61869408085 6.16198193725e-18)
(56.6774791874 -1.56870369826 -1.32134529148e-18)
(56.832285519 -1.51185287209 -5.55334814256e-18)
(56.981461432 -1.44814329583 2.69876857321e-18)
(57.1243200499 -1.37761602039 5.02806508995e-18)
(57.2601850885 -1.3003524299 -2.78922984325e-18)
(57.3883816305 -1.21647410839 -1.83425321371e-18)
(57.5082841783 -1.12614551941 1.85986645951e-19)
(57.6191392262 -1.02956954993 2.90119719988e-19)
(57.7207203119 -0.927024476771 9.82245260548e-20)
(57.81047126 -0.818344479512 -4.99518430876e-18)
(55.145671302 -2.23924575116 5.35698979108e-18)
(55.3365138987 -2.24953166423 6.63951103208e-18)
(55.5282401925 -2.25233782183 -1.71259633168e-18)
(55.720568303 -2.24792993499 2.09338692716e-20)
(55.9130988292 -2.23598401643 -9.26483286009e-20)
(56.1051455082 -2.21617360531 1.58197128889e-19)
(56.2959238712 -2.1882258323 -6.70864749432e-18)
(56.4846760072 -2.15191540139 3.28281801931e-18)
(56.6706579974 -2.10705319433 6.47626156727e-18)
(56.8531066251 -2.05349200901 -1.71993577157e-18)
(57.0312392069 -1.99113180507 1.25994449676e-18)
(57.2042652556 -1.91992127527 -2.8370745097e-18)
(57.3713952355 -1.83985896025 -4.64993971366e-18)
(57.5318448092 -1.75099419945 1.27270461312e-18)
(57.684843395 -1.65342775 7.74861931872e-18)
(57.8296248792 -1.54731070842 3.51844703267e-19)
(57.9654887514 -1.4328462501 -2.52090148027e-18)
(58.0915952204 -1.31028266787 -2.8302083483e-18)
(58.2077528003 -1.17995640722 -3.79576898978e-18)
(58.3109734978 -1.04162103125 2.49496393191e-18)
(55.3545335348 -2.73832581499 3.8971932636e-18)
(55.5653028088 -2.75347384037 3.65160599404e-18)
(55.7772812515 -2.7594198738 3.41113653107e-18)
(55.9905999973 -2.75643319045 1.54833787589e-18)
(56.2048397305 -2.74407795126 -1.61075825797e-18)
(56.4191199622 -2.72192686683 1.84318566125e-18)
(56.6325101485 -2.6896239684 -5.39508090539e-18)
(56.8441485621 -2.64687587783 2.84698230987e-19)
(57.0531860453 -2.59343727492 5.26194816828e-18)
(57.2587381313 -2.52911590838 9.11336241999e-20)
(57.4598927182 -2.45377910777 1.85900201017e-18)
(57.6557298445 -2.36735660993 -1.61420313053e-18)
(57.8453290495 -2.26984132613 -2.87899034595e-18)
(58.027772226 -2.16129028939 -1.35724947307e-18)
(58.2021536649 -2.04182588705 4.24387732272e-18)
(58.367565663 -1.91163522175 5.48005585885e-18)
(58.5231745422 -1.77097360504 -8.69395100463e-18)
(58.6679532845 -1.62015715346 -2.64665959803e-18)
(58.801688768 -1.4596224368 3.43954770824e-21)
(58.9205669479 -1.28907038333 3.03580733461e-18)
(55.5879857363 -3.29012276422 -2.01960893096e-18)
(55.8229665359 -3.31253387748 -3.86695121891e-18)
(56.0598561416 -3.32362884675 -4.00676565107e-18)
(56.2989928522 -3.32374546755 1.78383466212e-18)
(56.5399398323 -3.31239740246 4.06864105995e-18)
(56.7816495028 -3.28902656059 4.08093320928e-18)
(57.0230145872 -3.25314954472 1.38492320419e-19)
(57.2630263571 -3.2043768186 -3.96893746059e-18)
(57.5006953313 -3.14238947022 2.00982598761e-18)
(57.7349866221 -3.06693818988 5.60014467086e-18)
(57.9648258888 -2.97784722617 1.68749160157e-18)
(58.1891257993 -2.87502040914 -4.42025535172e-18)
(58.4067991588 -2.75844157413 -3.63763204381e-18)
(58.6167612902 -2.62817371643 -5.86631005672e-18)
(58.8179416653 -2.48435981733 1.47181316638e-18)
(59.0092659937 -2.32722167161 8.21032720975e-19)
(59.1897513403 -2.15706356677 1.03566721003e-18)
(59.358176724 -1.97426340542 -6.22389154003e-19)
(59.5143317532 -1.77934537789 -1.59337492144e-18)
(59.6535534727 -1.57190936372 4.90860291537e-18)
(55.8411091105 -3.90256983767 1.55983463915e-20)
(56.105277903 -3.93483199265 -4.27537202819e-18)
(56.372609606 -3.95337249432 -4.29172292231e-18)
(56.6430776927 -3.95860435433 2.17224478125e-18)
(56.9164006044 -3.9499256005 6.66198821287e-18)
(57.1914996344 -3.92660221544 6.83261781595e-18)
(57.467036239 -3.88800937373 -4.39583748241e-18)
(57.7417756934 -3.83364836095 -4.53800117076e-18)
(58.0145359726 -3.76310671751 -1.23214992537e-19)
(58.2840924357 -3.6760607832 -2.49624886979e-18)
(58.5491690567 -3.57228330026 -4.71481939247e-18)
(58.8084675774 -3.45164759765 -4.88877096014e-19)
(59.0606925696 -3.31412689161 -1.86731225014e-19)
(59.3045533631 -3.15979129336 -4.09762120369e-18)
(59.5387744643 -2.98880685814 4.08821539739e-18)
(59.7620708347 -2.80143291418 4.10413500632e-18)
(59.9732648505 -2.59802611716 3.95666056935e-18)
(60.170870579 -2.37903005952 -1.4259538122e-19)
(60.354650609 -2.14506831941 2.67203210465e-19)
(60.5188053135 -1.89559697244 2.69585872403e-18)
(56.1051386428 -4.58896600665 3.51060597623e-18)
(56.4039959668 -4.63467973688 6.64918705669e-21)
(56.7077118344 -4.66399244557 -2.46530400308e-18)
(57.015844878 -4.67740568544 6.45580968429e-20)
(57.3283448214 -4.67400701681 -5.63259050507e-20)
(57.6439980171 -4.65279811243 1.00516650334e-17)
(57.9611213894 -4.61297840554 -9.60134882406e-21)
(58.2781958206 -4.55391990503 -1.29438208992e-17)
(58.5938053677 -4.47511059137 -2.39518556531e-18)
(58.9064764793 -4.37614712185 3.0277793734e-18)
(59.2146708241 -4.25674660477 -3.42125680444e-19)
(59.5168318938 -4.11675344884 6.15739524612e-19)
(59.8114143479 -3.9561344186 2.16461072109e-18)