/*--------------------------------*- C++ -*----------------------------------*\
  =========                 |
  \\      /  F ield         | OpenFOAM: The Open Source CFD Toolbox
   \\    /   O peration     | Website:  https://openfoam.org
    \\  /    A nd           | Version:  7
     \\/     M anipulation  |
\*---------------------------------------------------------------------------*/
FoamFile
{
    version     2.0;
    format      ascii;
    class       surfaceVectorField;
    location    "1";
    object      Uf;
}
// * * * * * * * * * * * * * * * * * * * * * * * * * * * * * * * * * * * * * //

dimensions      [0 1 -1 0 0 0 0];

internalField   nonuniform List<vector> 
14796
(
(51.3096802045 -0.00769000981478 -6.81026490169e-21)
(51.302340133 -0.0121491488378 -6.42934704289e-21)
(51.3364007837 -0.0156682745335 -1.04561945475e-19)
(51.3171227519 -0.033574229858 6.36602036312e-20)
(51.3801203265 -0.0239677298262 1.3604523209e-19)
(51.3519730806 -0.0549918353086 -4.70680187573e-20)
(51.4405438942 -0.0324854093079 5.271162073e-19)
(51.4044751221 -0.0760868144278 7.69175281233e-20)
(51.5174665817 -0.0411781327497 1.48598601798e-19)
(51.473196222 -0.0969745591065 4.80774581418e-19)
(51.6108019336 -0.0500467043882 -5.33223334111e-19)
(51.5580972796 -0.117805953388 -4.46804476037e-19)
(51.7205290966 -0.0591001014691 8.60164812609e-20)
(51.6594861026 -0.13866652225 -6.5650927095e-19)
(51.8466544541 -0.0683391590532 5.22461320065e-19)
(51.7774643572 -0.159595140015 2.69860705379e-19)
(51.9891851465 -0.0777529430867 -2.42665220716e-19)
(51.9119939021 -0.180598728413 9.28735602781e-19)
(52.1480983612 -0.0873157969439 -6.18258710261e-19)
(52.0630449386 -0.201646471517 8.75051568661e-19)
(52.3233028553 -0.0969832962838 1.14863546173e-20)
(52.2305958833 -0.222659583486 -2.85298808584e-19)
(52.5145954744 -0.106688670849 1.13692447725e-18)
(52.4145534556 -0.243504663595 -4.96174820391e-19)
(52.7216154999 -0.116340474537 -7.60004630571e-21)
(52.6146822122 -0.263990607969 -2.9603082241e-19)
(52.9437973191 -0.125821513539 -3.75841991971e-19)
(52.8305576025 -0.283867662665 2.29600432875e-20)
(53.1803270322 -0.134988110675 8.89738190865e-19)
(53.0615252557 -0.302828996649 4.39044091859e-19)
(53.4301033126 -0.143671976382 -9.98119289812e-19)
(53.3066616476 -0.320511686482 4.74275985632e-19)
(53.691703791 -0.151677920158 -2.93217409398e-18)
(53.5647274142 -0.336508186471 -4.84276947975e-19)
(53.9633465709 -0.158811580086 -9.72917789939e-19)
(53.8341558224 -0.350358708024 -9.59086390287e-19)
(54.242952499 -0.164794685655 1.56494666136e-18)
(54.1129264539 -0.361676607316 5.11733675137e-19)
(54.3991380305 -0.369781773606 -3.63709985747e-18)
(54.5281190072 -0.169716396499 -2.08417020201e-18)
(51.3082181252 -0.0335680632427 6.40208064089e-20)
(51.3022288609 -0.0224627849514 1.63461464431e-19)
(51.3341248966 -0.06690361411 1.21167224549e-19)
(51.3166026684 -0.0661218943784 1.29934514062e-20)
(51.3770841732 -0.0999426432749 -1.06260617349e-19)
(51.3511216069 -0.109017779207 2.04743977096e-19)
(51.4369172776 -0.132670662457 3.04799901826e-20)
(51.4035197614 -0.151411456261 -2.10006985258e-19)
(51.5134826184 -0.165167935278 -1.14302661376e-19)
(51.472297624 -0.193467398299 1.78808139045e-19)
(51.6066716659 -0.197562544731 -5.69966429882e-19)
(51.5573743616 -0.235379701518 -2.04529682804e-19)
(51.7164485923 -0.229958656853 -4.7271628397e-19)
(51.6590886104 -0.277327795544 -8.62685275253e-19)
(51.842837039 -0.262404564474 6.75839411736e-19)
(51.7776023104 -0.319429390047 -7.13767712308e-19)
(51.9858822047 -0.294885024417 2.04557397429e-18)
(51.912941319 -0.361723894452 9.0842904104e-19)
(52.1456094883 -0.327314520005 1.20747733885e-18)
(52.0651432374 -0.404161922622 1.28794085423e-18)
(52.3219816603 -0.359527976378 -7.92668047394e-19)
(52.2342602519 -0.44659247003 8.42191605761e-19)
(52.5148530574 -0.391273550692 -1.92761859036e-18)
(52.4202772062 -0.488752103865 -6.69709282982e-19)
(52.7239212228 -0.422209373801 -2.65485003032e-19)
(52.623037049 -0.530258882374 -2.35168287457e-18)
(52.9486762189 -0.451903919978 8.37044590304e-19)
(52.8421902808 -0.570609459446 7.88501636496e-19)
(53.1883536513 -0.479839028277 2.43076607013e-20)
(53.0771504878 -0.609181336086 5.34596133828e-19)
(53.4418931431 -0.50541840773 9.86596047322e-19)
(53.3270521842 -0.645236928866 2.32044164568e-20)
(53.7078958524 -0.5279723833 1.48470917617e-18)
(53.5906945092 -0.67793858337 -5.93706883449e-19)
(53.9845836986 -0.546805596432 5.23549237004e-19)
(53.8665532468 -0.706341372676 1.05293774966e-18)
(54.269744116 -0.560985518879 -4.68021393121e-18)
(54.1525690963 -0.72949542598 1.67294445567e-18)
(54.4470966972 -0.745030653715 -2.73819511353e-18)
(54.5600356455 -0.570553969615 -1.43471933671e-18)
(51.308683005 -0.055303729843 1.12475788163e-19)
(51.3022912519 -0.0333590694753 1.93605973719e-19)
(51.3349450993 -0.10951332233 9.65230045057e-20)
(51.3169240041 -0.0991100846516 -1.1752559591e-19)
(51.3784012251 -0.162659866704 1.01085064679e-19)
(51.3517001705 -0.163653776488 1.5438081843e-19)
(51.4387520102 -0.215096202075 -6.17187173756e-20)
(51.4043006027 -0.227360599191 -8.42109635e-20)
(51.5158566283 -0.267160222217 8.85382206893e-20)
(51.4733006648 -0.29059580933 3.91196414677e-19)
(51.6096809314 -0.319134570374 -4.97113141998e-19)
(51.5587143313 -0.353688930214 5.21386378453e-19)
(51.7202742467 -0.371227892305 -1.10355036715e-18)
(51.6609756485 -0.416925959973 -1.0615350178e-18)
(51.8477474014 -0.423555915005 -4.81001263778e-19)
(51.7803481881 -0.480505016262 -2.69851919164e-19)
(51.9922377075 -0.476125999877 1.51650734903e-19)
(51.9169682651 -0.544503466871 2.86177728322e-19)
(52.1538674372 -0.528822617683 9.22763888151e-19)
(52.0709926355 -0.608857682527 1.08470999232e-18)
(52.3326984996 -0.58139404188 9.64296478279e-19)
(52.2425997898 -0.673345576724 4.94041759123e-19)
(52.5286835762 -0.633442960518 -1.09400964484e-18)
(52.4319042526 -0.737572620782 -8.45713212401e-19)
(52.7416150176 -0.68442057803 -1.2973683201e-18)
(52.6388777291 -0.800961342815 -6.58270065969e-19)
(52.9710701142 -0.733625306956 4.86497340916e-19)
(52.8632941265 -0.862743346716 -9.05070825018e-19)
(53.2163596097 -0.780206972868 5.33086563456e-19)
(53.1046783707 -0.921962469399 7.44303571283e-20)
(53.4764798375 -0.823181499896 -1.5536331697e-18)
(53.3622585859 -0.977481290197 1.35272548844e-18)
(53.7500737695 -0.861434647106 -1.0225415438e-18)
(53.6348981559 -1.02801242262 -1.5512751914e-18)
(54.0353832515 -0.893821317634 2.19951805593e-18)
(53.9211234067 -1.07209735182 -6.85051711545e-19)
(54.3303823613 -0.918777231409 3.60313349337e-18)
(54.2188305245 -1.10843867208 1.69050113416e-18)
(54.526549372 -1.13465791857 -1.01893666683e-19)
(54.6331665794 -0.936451994328 -7.71938950454e-19)
(51.308841554 -0.0772068102746 -3.63239289913e-20)
(51.3023010126 -0.0444541525045 -3.11701246469e-19)
(51.3350566375 -0.153183151395 -5.97087788494e-20)
(51.3169555097 -0.13203569661 -1.16953692834e-19)
(51.3783905494 -0.22803067521 -3.08498681966e-20)
(51.3516734992 -0.218125062657 -8.5845800867e-20)
(51.4386499154 -0.302205995812 3.68501877509e-19)
(51.4041735338 -0.303171632247 1.98412032961e-19)
(51.5157781111 -0.376139129639 8.23816035095e-19)
(51.4731540221 -0.38771371523 -2.24296255047e-19)
(51.6098459833 -0.450192540304 -4.29038270229e-20)
(51.5587523554 -0.47224192608 4.22287788966e-19)
(51.7210220299 -0.524640847384 -2.28386086175e-19)
(51.6615163489 -0.557165643937 -8.57898004978e-19)
(51.8495441396 -0.599639630342 4.96765756674e-19)
(51.7818366265 -0.642772593888 1.36038289539e-19)
(51.9956870249 -0.675194416258 1.21850257313e-18)
(51.9199998224 -0.729190246611 1.13924618979e-18)
(52.1597220066 -0.751135002041 6.56319416363e-19)
(52.0763323225 -0.81635354157 1.75689060059e-18)
(52.3418682443 -0.827095528392 -1.31409978076e-18)
(52.2511947459 -0.903979348318 1.40750829457e-18)
(52.5422383991 -0.902498932037 -4.10624585576e-19)
(52.4448906317 -0.991546104527 -2.19073919406e-18)
(52.7607823633 -0.976545225779 -2.66729954486e-19)
(52.6575827024 -1.07827388008 -5.17228804549e-21)
(52.9972251643 -1.04820844637 -1.31544625561e-18)
(52.8892306255 -1.16311255659 4.37348386156e-19)
(53.2510063882 -1.11624328562 8.93289937229e-19)
(53.1395291422 -1.24474794614 1.00908716116e-18)
(53.5212254711 -1.17920617998 1.35189514976e-18)
(53.4078511176 -1.32160941378 1.2764157726e-18)
(53.8065860581 -1.2354590401 -1.2134373e-18)
(53.6931661404 -1.39190398844 -2.54533897241e-19)
(54.105337417 -1.28332170884 -1.18907543421e-18)
(53.9940615692 -1.45359026233 -1.31073604641e-18)
(54.4152235901 -1.32051204196 -2.00357605678e-18)
(54.3084275837 -1.50471717235 2.33222902108e-20)
(54.6346864437 -1.54160752669 -4.09165507375e-18)
(54.7330464753 -1.34730541203 8.26890155504e-19)
(51.3088148112 -0.0991868182944 -3.92356237992e-19)
(51.3022888044 -0.055515525748 -1.91096023517e-19)
(51.3349478139 -0.196888245282 -1.4308539217e-19)
(51.3168672323 -0.16485439583 7.11571294456e-20)
(51.3781844779 -0.293225776724 1.43325636322e-19)
(51.3514242194 -0.272461928865 -2.58593289829e-20)
(51.4384279968 -0.388761729269 -3.94118378701e-19)
(51.4037430149 -0.378937004344 7.02426489439e-19)
(51.5157156295 -0.484071938611 -6.25540752567e-19)
(51.4726248061 -0.484987162876 -7.40203515746e-20)
(51.6102252782 -0.579674753265 -3.92383853567e-19)
(51.5583296002 -0.59127997904 -6.26658662487e-19)
(51.7222599382 -0.675979028462 -4.93523830589e-19)
(51.661546495 -0.698382483138 -8.79864290914e-19)
(51.8522183598 -0.773234819894 7.78179189327e-19)
(51.7828356184 -0.806704622626 -6.05314464409e-19)
(52.0005581911 -0.871491751561 1.67729643287e-18)
(51.9226844585 -0.916450651846 1.435605722e-18)
(52.167751565 -0.970565178463 2.50677968049e-18)
(52.0816462937 -1.02757636864 1.46576172845e-19)
(52.3542314159 -1.07000839569 5.30022967863e-19)
(52.26032743 -1.13975346001 1.37263053231e-18)
(52.5603311535 -1.16908761704 -1.78440132895e-18)
(52.4592901272 -1.25233799814 -2.0293918982e-19)
(52.7862204834 -1.26676436047 6.97849930205e-19)
(52.678961402 -1.36434114107 -5.92304330346e-19)
(53.0318327986 -1.36169194883 2.75736778118e-18)
(52.9195605138 -1.47441571866 9.76603359006e-19)
(53.2967926456 -1.45222109578 1.39163402768e-18)
(53.181024267 -1.58086030737 1.46204360408e-18)
(53.5803478535 -1.53642438641 -3.2744200227e-19)
(53.4629381416 -1.68162112797 3.01628372356e-19)
(53.8813073605 -1.61210315975 -3.52939607492e-19)
(53.7644291307 -1.77434125345 3.78031918316e-19)
(54.1979731512 -1.67697880061 -1.00344099182e-19)
(54.0842088176 -1.85632846593 1.17049578214e-18)
(54.5282015582 -1.72795629263 -2.06296911751e-18)
(54.4201437552 -1.92505392196 1.18156040039e-18)
(54.7708619326 -1.97602894409 -2.80015709367e-18)
(54.8692191868 -1.7652091284 3.67803192138e-19)
(51.3087482649 -0.121050901544 2.72343344546e-19)
(51.3022641904 -0.066493089259 1.41439360404e-19)
(51.3346985436 -0.240356906174 1.88368395621e-19)
(51.3166854827 -0.197439690487 1.76778449356e-19)
(51.3776695136 -0.358147227969 5.33045425187e-19)
(51.3508905472 -0.326453369023 -9.3344652121e-20)
(51.4376441467 -0.475185823211 1.02229876557e-18)
(51.4027455575 -0.454340184604 3.32685131291e-19)
(51.514776253 -0.592258207658 -7.5179550858e-20)
(51.471173243 -0.582022420574 1.12016251686e-18)
(51.6093914281 -0.71007917483 -1.11384868586e-18)
(51.5565844141 -0.710383221232 -8.59613599572e-20)
(51.721974237 -0.829220994146 -9.91473456856e-19)
(51.659850764 -0.840189690345 -9.01061230317e-19)
(51.8531387504 -0.950050583212 5.22105969349e-20)
(51.7817519121 -0.972015613173 -2.06735159174e-18)
(52.0035879574 -1.07267850395 -9.38591531455e-20)
(51.9230325536 -1.10617854611 1.25468503295e-19)
(52.1740644795 -1.19691534009 -9.85306698505e-19)
(52.0845369968 -1.24268593245 4.33427215769e-19)
(52.3652919088 -1.32223247172 6.39601960676e-19)
(52.2671907521 -1.38118670352 4.86439498628e-20)
(52.5779070941 -1.44772640652 9.86798332547e-19)
(52.4718970913 -1.52092662831 -3.11988057026e-19)
(52.8123844948 -1.57209483345 -3.12628708165e-19)
(52.6994358895 -1.66071017175 -7.0158557134e-19)
(53.0689518494 -1.69362850116 -3.15362992148e-19)
(52.9503788062 -1.79887851938 1.49239392173e-18)
(53.3475022854 -1.81021176243 3.73336038024e-19)
(53.2249989658 -1.93330315531 -6.79057622752e-19)
(53.6475074424 -1.9193530815 1.00521117436e-18)
(53.5231845977 -2.06138744165 2.12996778709e-19)
(53.9679353063 -2.01819288144 1.89786614026e-18)
(53.8442998867 -2.18012791499 9.74332467779e-19)
(54.3071564999 -2.10374977302 2.4480439094e-18)
(54.1872369192 -2.28606306124 1.6823735802e-18)
(54.6629130999 -2.17201010557 4.41010127777e-19)
(54.5498641991 -2.37584809066 6.91688216285e-19)
(54.9309997784 -2.44365130528 -2.49014848183e-18)
(55.0318318157 -2.22307000528 -6.49194120154e-18)
(51.3086243406 -0.142676712868 4.58795336593e-20)
(51.3022208237 -0.077315059766 5.74517124987e-21)
(51.3342012045 -0.283395210219 -1.04855194943e-19)
(51.3163621044 -0.229552962878 -1.5651126538e-19)
(51.3766059029 -0.422544764172 -2.9362225293e-19)
(51.3499223568 -0.37972372159 9.34798253356e-20)
(51.435923164 -0.561130133681 4.30558724231e-19)
(51.400884901 -0.528896445097 -3.17266911328e-19)
(51.5124523013 -0.700174022913 1.10916218353e-18)
(51.4683291 -0.678262437572 2.28385532462e-19)
(51.6067034856 -0.840615162048 1.26500048464e-19)
(51.5528451605 -0.828968972515 5.19657430544e-19)
(51.7193849078 -0.983223466522 -1.97634201201e-18)
(51.6555199943 -0.982031560431 -4.00246522102e-19)
(51.8513747347 -1.12852140563 -1.99327967118e-18)
(51.7773962713 -1.13823760712 -1.95702332598e-18)
(52.0036795428 -1.27671872597 6.52194122248e-19)
(51.9195315262 -1.29806611901 -9.8688433045e-19)
(52.1773815544 -1.42765490655 1.46575254449e-18)
(52.0831291313 -1.46161924925 6.99611844627e-19)
(52.3735745523 -1.58074566805 -9.0158544561e-19)
(52.2695148342 -1.62855893044 7.44876062995e-19)
(52.5932875073 -1.73493479336 -1.99772523731e-18)
(52.4800265766 -1.79804682125 -1.30487782457e-18)
(52.8373962651 -1.88865809292 1.10167316463e-18)
(52.7159029907 -1.96869150508 -2.80911279699e-18)
(53.1065245747 -2.03982346748 1.12729497855e-18)
(52.9781846855 -2.13850984813 2.57497814759e-18)
(53.4009361007 -2.18580580741 -8.37936009886e-19)
(53.2676028542 -2.30490814009 -6.41020428532e-19)
(53.7204214548 -2.32348119319 1.83209888679e-19)
(53.5844714127 -2.46468114182 -1.51711749032e-18)
(54.0641922921 -2.44923146669 7.60597830106e-19)
(53.928502198 -2.61407787394 3.73453780312e-18)
(54.4307645937 -2.5592425875 -6.965559307e-20)
(54.2988797619 -2.74873546287 -9.55763909797e-19)
(54.817955984 -2.64839464592 -2.2335447346e-18)
(54.6935077941 -2.86440266916 -1.57338284484e-18)
(55.111657987 -2.9539040277 -1.15283593361e-19)
(55.2224058143 -2.71653809573 -5.09476385881e-19)
(51.308413949 -0.163882546483 -1.96605720388e-19)
(51.3021513189 -0.0878731495856 -4.04356471887e-19)
(51.3333568037 -0.325644661986 4.17517644217e-20)
(51.3158438605 -0.260868183633 -2.35466090173e-19)
(51.3747750147 -0.485890262373 6.98279196218e-20)
(51.3483587368 -0.431748081287 -1.13747366871e-19)
(51.4328724879 -0.645917247517 -5.1927331351e-19)
(51.3978322752 -0.601904427925 -2.89429030989e-19)
(51.5081141025 -0.807041198179 -3.60726424036e-19)
(51.4635332112 -0.772855006317 -2.22173378423e-19)
(51.6012226563 -0.970485061058 -6.96543439511e-21)
(51.5462543776 -0.946069698689 7.85768866475e-19)
(51.7131685224 -1.13727979846 -3.81491503684e-19)
(51.6473261705 -1.12287386039 4.29172266437e-19)
(51.8451447096 -1.30816633502 -9.51183099013e-19)
(51.7680974809 -1.30433347027 -1.93028237146e-19)
(51.9985262127 -1.48351201939 -9.38595008715e-19)
(51.9099982571 -1.49115466478 -3.86531046595e-19)
(52.1748150325 -1.66323614301 -2.02700581394e-20)
(52.0746664769 -1.68359678974 -3.72513067977e-19)
(52.3755708952 -1.84673924051 3.40723955773e-19)
(52.2639205228 -1.88139052954 7.27615746638e-19)
(52.6023263897 -2.03283728632 -2.11598438607e-18)
(52.4796440244 -2.08365778593 4.84556615587e-20)
(52.856485428 -2.21970678118 -1.33362987591e-18)
(52.7236650408 -2.28883727734 -1.69418044428e-18)
(53.1392050275 -2.40484792012 8.07049544859e-19)
(52.9976418229 -2.49462352755 2.05806520813e-19)
(53.4512618688 -2.58506894185 -1.31949272869e-18)
(53.3029252005 -2.6979294387 -1.43920034319e-18)
(53.7929077635 -2.75651650874 2.03120839582e-18)
(53.6404245752 -2.89487002961 -1.1133440014e-18)
(54.163723694 -2.91467265557 2.01645886564e-18)
(54.0103622164 -3.08082275783 5.21104003846e-18)
(54.5624592466 -3.05471531246 -2.45560821188e-18)
(54.412372278 -3.25034559584 -4.89470182357e-18)
(54.9869666889 -3.17021197113 5.39048133491e-19)
(54.8444527958 -3.39801943996 -9.84338657278e-19)
(55.3065464946 -3.51487845592 6.23015556198e-18)
(55.4335208813 -3.26065161715 -2.23733422877e-18)
(51.3080875742 -0.184414596439 -4.43238348817e-19)
(51.3020474197 -0.09802207354 -6.39117786181e-19)
(51.3320477945 -0.36660536711 -3.90932218769e-19)
(51.3150696542 -0.290949242827 -5.80204606982e-20)
(51.3719062048 -0.547456529996 -4.72911994445e-19)
(51.3460102863 -0.481810512252 -1.74587565313e-18)
(51.4279990998 -0.728621504635 7.55198015027e-21)
(51.3931972775 -0.67238578304 2.81508181664e-20)
(51.5009764576 -0.911772346162 9.2385869548e-19)
(51.4561219191 -0.864584564332 3.63620829171e-19)
(51.5918018241 -1.09848269045 1.22151773231e-18)
(51.5357997127 -1.06026848772 4.90818043655e-19)
(51.7017470611 -1.29011440409 6.17260743591e-19)
(51.6338281272 -1.26114811061 4.96923383163e-19)
(51.8323730447 -1.48769869811 3.70982834164e-19)
(51.7519019766 -1.46865000544 -9.16389943551e-20)
(51.9854921944 -1.69183147978 1.7895378593e-19)
(51.8918826876 -1.68379298012 9.48788195107e-19)
(52.1631136361 -1.90257884066 3.75109605912e-19)
(52.0559214314 -1.9070788171 6.1113571465e-19)
(52.3673714181 -2.11938518714 4.35291642661e-19)
(52.2464294314 -2.13838852893 7.70621935665e-19)
(52.6004330638 -2.34098343052 4.68011715338e-19)
(52.4659622438 -2.37687682652 -4.68847464672e-19)
(52.8643846504 -2.56531378205 -1.55728079666e-19)
(52.7170930071 -2.62086738107 1.57712440509e-18)
(53.1610907657 -2.78946164857 -2.03738268197e-18)
(53.0022830672 -2.86775925243 1.26951460126e-18)
(53.4920302565 -3.00961991192 -1.23329739151e-18)
(53.3237141019 -3.11395828416 -3.19968280829e-18)
(53.8581106683 -3.22110504158 2.06674419858e-18)
(53.6831238451 -3.35483279993 -8.32978801103e-19)
(54.2594703994 -3.41834040941 -1.69488787045e-18)
(54.0814767025 -3.58475934073 3.99785712732e-18)
(54.6952606805 -3.59526980147 -3.42169103847e-18)
(54.5191086335 -3.79701168623 -6.18843307905e-18)
(55.1635294821 -3.74382019584 4.69828643798e-18)
(54.9942375799 -3.98473005676 -1.96357281842e-18)
(55.5079398903 -4.13673232666 5.73239905108e-18)
(55.6603895525 -3.86283096353 2.24542450561e-18)
(51.3076112001 -0.203939594261 -2.53966550232e-19)
(51.3018999145 -0.107573913439 -2.32583122521e-19)
(51.3301380782 -0.405617041212 -1.41267280363e-18)
(51.3139717417 -0.319232352037 9.87774961293e-20)
(51.3676890259 -0.606269063479 -1.24491748537e-18)
(51.3426670392 -0.528977424141 -1.31431744069e-18)
(51.4207428819 -0.807973743766 3.84104883711e-19)
(51.386546251 -0.739050959973 2.3276617288e-19)
(51.4901500591 -1.01283058763 -6.91489714482e-20)
(51.4453561461 -0.951825805622 4.73108359905e-19)
(51.5771352118 -1.22284080894 -2.33318859098e-19)
(51.5203479032 -1.16963068142 -1.09629873093e-18)
(51.683302652 -1.43978322035 -2.11630886948e-19)
(51.6133977338 -1.39464991604 -2.75875717254e-19)
(51.8106285142 -1.66507388084 4.86032897975e-19)
(51.7265744173 -1.62877318715 -4.72398414183e-19)
(51.9614298232 -1.89963679751 1.38033608144e-18)
(51.8622220622 -1.87344215892 -1.77177431015e-18)
(52.1383129888 -2.14378506637 1.00627477161e-18)
(52.0230806778 -2.129514844 -2.5724566578e-19)
(52.3441050057 -2.39710231008 -1.3309451617e-19)
(52.2122581844 -2.3971394399 9.93983481054e-19)
(52.5817607044 -2.65832077944 6.40109939138e-19)
(52.4331218321 -2.67561780245 3.26097606528e-19)
(52.8542371183 -2.92520316614 2.99944134732e-18)
(52.6891726094 -2.96325834833 -1.04981924898e-19)
(53.1643311966 -3.19444161412 1.049836404e-19)
(52.9839047345 -3.25723529935 2.72622287859e-18)
(53.5144797051 -3.46158222659 -2.79740853358e-18)
(53.3206058398 -3.55347149633 -1.10614512473e-18)
(53.9065219769 -3.72101120082 1.0998221371e-18)
(53.7021600072 -3.84654622458 1.32547235762e-18)
(54.3414321942 -3.965909545 -4.97994412349e-19)
(54.1306048138 -4.12970227604 1.47011599875e-18)
(54.8190172262 -4.18871873543 -4.72769809573e-18)
(54.6073466808 -4.39468966473 -5.83383036918e-18)
(55.3377183905 -4.3793515666 -9.20162327472e-19)
(55.1310301291 -4.63286997454 -7.92584743713e-20)
(55.7044059766 -4.83036406829 1.46546584165e-18)
(55.8936659968 -4.53570971015 -5.58623509988e-18)
(51.3069480229 -0.222036111856 1.20148995589e-19)
(51.3016989823 -0.11629469974 -2.49732888499e-19)
(51.3274833885 -0.441839799602 1.97103964409e-19)
(51.3124795055 -0.345019376033 6.06784507638e-19)
(51.3617885909 -0.661075144187 1.63068124622e-19)
(51.3381103855 -0.572077123311 1.0563548809e-18)
(51.4104934219 -0.882318754139 3.21761500565e-19)
(51.377424654 -0.800266638884 9.1902652632e-19)
(51.4746566991 -1.10817575836 -5.53815152395e-19)
(51.4304539472 -1.03249502761 6.21557827865e-19)
(51.5557712372 -1.34116479068 -1.1386225987e-18)
(51.4986836647 -1.27163223343 -7.91015407426e-19)
(51.6557910498 -1.58358637852 -5.36534193176e-19)
(51.584261192 -1.52043766735 -8.2742859868e-19)
(51.7771428841 -1.83735766098 -2.72872515909e-18)
(51.6896419728 -1.78138920396 1.70615038477e-18)
(51.9227061826 -2.10385599397 -3.4070627171e-18)
(51.8176911017 -2.05648952874 -1.21116173502e-18)
(52.0957715294 -2.38377650959 -2.68910936246e-19)
(51.9717986881 -2.3471029248 -3.14998632107e-18)
(52.2999845175 -2.67698268462 1.45206042814e-18)
(52.1558636425 -2.65380989382 -1.43789023144e-18)
(52.5392598629 -2.98234049073 -4.1810933275e-19)
(52.3742097229 -2.97623203242 2.41781352207e-18)
(52.8176514712 -3.2975477057 -3.75399874392e-19)
(52.631473026 -3.31282826823 -1.69707482861e-18)
(53.1391720486 -3.61897565851 1.51304750635e-18)
(52.9324581392 -3.6606893022 -1.10628444119e-18)
(53.5075556188 -3.94153327611 3.01055051026e-18)
(53.2819097398 -4.01534729952 1.87184797447e-18)
(53.9259579435 -4.25859525512 1.69538727473e-18)
(53.6842887341 -4.37060416245 2.74218399974e-18)
(54.3965942815 -4.56189993982 -3.86227905594e-18)
(54.1431796303 -4.71845936462 -3.27231492276e-19)
(54.9203095534 -4.8420510038 -1.18982074627e-18)
(54.6616142262 -5.04886697101 -3.43573688194e-18)
(55.4962259785 -5.08643331127 2.30159744257e-18)
(55.2390266837 -5.35094091384 3.04843298662e-18)
(55.880694495 -5.60734663842 -3.25855990534e-18)
(56.1205938001 -5.2914698115 -2.38070744423e-18)
(51.3060594051 -0.238188285086 2.36789893158e-19)
(51.3014367861 -0.123902141333 5.93970023738e-19)
(51.3239385914 -0.474239583169 1.46585756435e-18)
(51.3105298334 -0.367479017179 4.70813571207e-19)
(51.3538655547 -0.71032859997 1.81212473703e-18)
(51.3321238974 -0.609695204621 2.57368170715e-19)
(51.3966303927 -0.949599173793 1.21870042027e-18)
(51.3653804039 -0.854048586529 -3.71890656849e-19)
(51.4534857867 -1.19523191114 3.84214165332e-19)
(51.410644588 -1.10402129662 7.82312181309e-19)
(51.5261777964 -1.45035934487 -4.79976604284e-19)
(51.4696011346 -1.36309828471 1.03946879616e-19)
(51.6170122209 -1.71793261689 1.41454080739e-18)
(51.5446201935 -1.63473678841 -7.38288436265e-19)
(51.728888892 -2.00051937857 3.2214789795e-18)
(51.6385301342 -1.92215346615 5.46421256871e-19)
(51.8652834551 -2.30011107264 -9.55050808255e-19)
(51.7547394331 -2.2280642023 3.14890313997e-18)
(52.0302345133 -2.6179627787 -4.31684180601e-18)
(51.8973257194 -2.55452711097 -1.03353872205e-18)
(52.2283235165 -2.9544160286 -4.70926283885e-19)
(52.0710451489 -2.9027868222 -4.2769133221e-18)
(52.4646079548 -3.30867877801 1.13757987686e-18)
(52.2813074189 -3.27303902626 1.22764316979e-18)
(52.7444983962 -3.67858271729 -2.42624776227e-18)
(52.5341000156 -3.66415440477 1.69375183067e-18)
(53.0735726967 -4.06034171249 -7.45417034919e-19)
(52.8358572201 -4.07339226744 -3.41906651876e-18)
(53.4573082018 -4.44832081248 1.60537427033e-18)
(53.1932165458 -4.49610531361 8.31479068711e-19)
(53.9007138774 -4.83486061027 7.20350173399e-19)
(53.6127900794 -4.92544004302 2.59691809765e-18)
(54.4078481942 -5.21006527548 9.39120826559e-20)
(54.1003863832 -5.3521203382 -4.84571327146e-19)
(54.9812173401 -5.56229382863 8.01252731837e-19)
(54.6615047735 -5.7640519889 -1.97756674561e-18)
(55.6211948803 -5.87571915705 -2.50431295886e-18)
(55.297009765 -6.1475591322 1.29947138691e-18)
(56.0161110092 -6.48094195456 -1.31839209872e-18)
(56.3246498533 -6.14444539788 -5.36477699618e-20)
(51.3049412205 -0.2517938796 8.2796181975e-19)
(51.301127697 -0.130108449139 5.5052597481e-19)
(51.3193497511 -0.501573004215 -7.3750436212e-19)
(51.3081375565 -0.385591542184 3.67273081367e-20)
(51.3435855394 -0.752155345577 -1.92622331036e-18)
(51.3245599931 -0.64019094881 -6.68426417496e-19)
(51.3785711273 -1.0073104722 -8.08041595493e-19)
(51.3500321863 -0.898101650611 -2.21813982976e-18)
(51.4256897713 -1.27084529239 5.02051830688e-19)
(51.3852494557 -1.16337702465 4.0277614183e-19)
(51.4868925477 -1.54660126074 -1.54426310139e-19)
(51.4320063533 -1.44021003185 7.7423403916e-19)
(51.5647954428 -1.83831064876 -1.60553123803e-18)
(51.4928035078 -1.73288692857 -8.13948226853e-19)
(51.6627758654 -2.14935211344 4.74651850871e-19)
(51.5707906702 -2.04557146241 -1.93060677716e-18)
(51.7849068201 -2.48253672958 3.06878766473e-18)
(51.6698834898 -2.38184095576 1.06725686165e-18)
(51.9360046929 -2.83993128603 -9.9509288582e-19)
(51.7948239446 -2.74467092493 2.47474591352e-18)
(52.1216744356 -3.22263880232 -2.57691953285e-18)
(51.9512493093 -3.13627428406 -1.46080120611e-18)
(52.3482842993 -3.63051653745 1.78344344689e-18)
(52.1457522391 -3.55777535898 -2.50115386417e-18)
(52.6228760073 -4.06185134419 6.98616078031e-19)
(52.3858679267 -4.00885044119 2.44857042211e-18)
(52.9530025483 -4.51300646745 -1.8406329962e-18)
(52.6799951116 -4.48734780473 -1.83590576769e-18)
(53.3464548104 -4.97804709362 1.8227944128e-18)
(53.0371753462 -4.98885001033 -2.64069356256e-18)
(53.8108366183 -5.44839078469 1.39033936269e-18)
(53.4669116734 -5.5061807144 2.7668595109e-18)
(54.3529403826 -5.91239782322 -2.55397228973e-18)
(53.9781813927 -6.02893651505 1.36466248922e-18)
(54.977914205 -6.35574416998 -1.47586336701e-18)
(54.5802262882 -6.54282651673 -3.64766837712e-18)
(55.6883095863 -6.75853511881 2.4779517715e-18)
(55.2764066849 -7.03076485296 -1.38653245486e-18)
(56.0820675769 -7.46564874707 7.13040104963e-18)
(56.4824898659 -7.11140584016 2.35657704425e-18)
(51.3037011645 -0.262225960105 -2.40623857673e-19)
(51.3008243195 -0.134760214717 -5.87742549136e-19)
(51.313607043 -0.522500905792 1.05854401651e-19)
(51.3054204918 -0.39806367434 9.61970687136e-19)
(51.3307458042 -0.784461455793 -9.60279893834e-19)
(51.3153928903 -0.661806151446 9.55596607393e-19)
(51.3558817319 -1.05253339562 -1.0073423513e-18)
(51.3311922376 -0.929839519337 -7.29791903741e-19)
(51.3904673417 -1.3311893178 6.74915140346e-19)
(51.353885571 -1.20707213534 1.00733748786e-18)
(51.4366196099 -1.62512604164 1.14649518745e-19)
(51.3851454392 -1.49852691725 1.13200588134e-18)
(51.4972099557 -1.9390448424 -1.13911024039e-18)
(51.4274475465 -1.80943097705 -8.00536860431e-19)
(51.5759873735 -2.27725229974 -1.33742900919e-18)
(51.4842935598 -2.14503829642 -1.85478257876e-18)
(51.6775223542 -2.64356002598 4.73958027642e-19)
(51.559989334 -2.50994408286 -1.47421184503e-19)
(51.8073923164 -3.04115451465 2.00778348693e-18)
(51.6597612955 -2.90836977462 1.22725512279e-18)
(51.972263733 -3.47229437493 -1.38545095487e-18)
(51.7900446622 -3.34386960524 2.18997312726e-18)
(52.1799363063 -3.93793604184 -1.83393634644e-18)
(51.958640461 -3.81895440599 -2.87322327488e-18)
(52.4393373201 -4.43732400286 -8.61548923168e-20)
(52.1747584662 -4.33466679247 1.41239822825e-18)
(52.7604377428 -4.9675043525 -2.63553417248e-18)
(52.4490540253 -4.89009896429 8.34829402884e-19)
(53.1540277292 -5.52274744738 -1.69355620123e-18)
(52.7935157217 -5.48177398736 -4.67524455242e-18)
(53.6312865537 -6.09392443515 2.73945494548e-18)
(53.221437405 -6.10288939472 6.97223050698e-20)
(54.2030403112 -6.66777697831 2.67422569717e-19)
(53.7462129774 -6.74245440553 4.18421288119e-18)
(54.8786768831 -7.22696621995 -3.55552664416e-18)
(54.38270108 -7.38419392573 -3.0807114612e-18)
(55.6645324349 -7.74652421951 3.26642334803e-18)
(55.1385267841 -8.00698777581 1.87427874876e-18)
(56.0391784814 -8.57662025532 -9.31614929014e-21)
(56.5615862367 -8.21165064855 1.93419264362e-19)
(51.3012386863 -0.268587886544 6.14775920018e-19)
(51.3003400439 -0.136328260351 6.11352873553e-19)
(51.3066640256 -0.535661898071 1.8116571175e-18)
(51.3017362959 -0.404930328674 5.87172634193e-19)
(51.3153800375 -0.80518398304 1.18603515204e-18)
(51.3041768164 -0.672886819891 1.17163950172e-18)
(51.3284522096 -1.08235823419 1.28465437352e-18)
(51.3084760893 -0.946497314684 -3.60470159268e-19)
(51.3475759671 -1.37234973071 1.46443219841e-18)
(51.3162100289 -1.23144943181 2.99482180542e-19)
(51.3744399852 -1.68075672729 2.16892342199e-19)
(51.328643442 -1.53275752499 -1.30246290504e-18)
(51.4127387028 -2.0135334873 -1.51615426405e-18)
(51.3477794153 -1.85815670963 1.71783496526e-19)
(51.4661541518 -2.37610907803 -6.64885987254e-19)
(51.3776083512 -2.21287474549 -1.33769129954e-18)
(51.539548734 -2.7735300032 6.05897661316e-19)
(51.4226688527 -2.60297290267 1.22661722586e-20)
(51.6391357462 -3.21042710926 1.40958634637e-18)
(51.4883792704 -3.03434801405 1.66543493177e-18)
(51.7725418009 -3.69067533761 7.01227663158e-19)
(51.5817123963 -3.51229928717 2.42996147638e-18)
(51.9489876349 -4.21693350066 3.72873593288e-19)
(51.7115165516 -4.04129648793 -1.85751222954e-18)
(52.1794413874 -4.79013871091 2.33230201578e-18)
(51.8886329808 -4.62451670923 1.91294229006e-19)
(52.476702234 -5.40887512503 -1.2064916685e-18)
(52.1261143878 -5.26326913076 3.39079693406e-18)
(52.8553210542 -6.06853886607 -2.9104141557e-18)
(52.4393568783 -5.95616485502 -2.16450889018e-18)