/*--------------------------------*- C++ -*----------------------------------*\
  =========                 |
  \\      /  F ield         | OpenFOAM: The Open Source CFD Toolbox
   \\    /   O peration     | Website:  https://openfoam.org
    \\  /    A nd           | Version:  7
     \\/     M anipulation  |
\*---------------------------------------------------------------------------*/
FoamFile
{
    version     2.0;
    format      ascii;
    class       surfaceVectorField;
    location    "1";
    object      Uf_0;
}
// * * * * * * * * * * * * * * * * * * * * * * * * * * * * * * * * * * * * * //

dimensions      [0 1 -1 0 0 0 0];

internalField   nonuniform List<vector> 
14796
(
(51.3093842864 -0.00746741870083 -1.48950333676e-20)
(51.3022678022 -0.0117824119835 -5.26493857845e-20)
(51.3353393206 -0.0152528620069 1.40734898275e-20)
(51.3165951064 -0.0326269551934 -1.07214985979e-19)
(51.3779300338 -0.023409244484 -1.2885829351e-20)
(51.3504665903 -0.0535985649537 -1.46365100704e-19)
(51.4369862007 -0.0318444398321 1.01051733545e-19)
(51.4016673091 -0.0744056615355 1.63144674894e-19)
(51.5124313475 -0.040520419694 2.84626838659e-19)
(51.4689287632 -0.0951690225036 -2.62091031824e-19)
(51.6043035514 -0.0494381135394 1.74392023603e-19)
(51.5523338642 -0.116035393383 3.67247471183e-20)
(51.7126966197 -0.0586027131551 2.45477973872e-19)
(51.6523030291 -0.137078633121 4.34127469949e-20)
(51.8377170415 -0.068008379375 2.73074604457e-19)
(51.7690480319 -0.158320045817 -2.17667999781e-19)
(51.9794536596 -0.0776349105101 -1.0614604668e-18)
(51.9026270187 -0.179744112336 -1.35720634976e-19)
(52.1379435954 -0.0874449117121 -1.1324993419e-18)
(52.0530838753 -0.201293274988 5.53790399459e-20)
(52.313130534 -0.0973799030694 9.81564022812e-19)
(52.2204453587 -0.222857811683 5.16561090752e-19)
(52.5048184105 -0.107357052496 1.03207903449e-18)
(52.4046396534 -0.244269642046 -2.5272609159e-20)
(52.7126238088 -0.117267226779 4.36233186729e-19)
(52.6054236319 -0.26530029596 -1.08410823154e-18)
(52.935928957 -0.126974295861 8.29717405181e-19)
(52.8223347272 -0.285660870347 8.24090039827e-19)
(53.1738374076 -0.136315350034 -4.97690655953e-19)
(53.0546501461 -0.305004327615 3.06201228342e-18)
(53.4251332347 -0.145103390136 -1.80529854259e-18)
(53.3013455453 -0.322928714723 -1.33698260319e-18)
(53.6882518317 -0.153125289665 -4.3462407865e-19)
(53.5610530457 -0.338990633372 -4.11660173724e-19)
(53.9612426689 -0.160169699995 9.86952848319e-19)
(53.8320415278 -0.352693175665 2.35493203547e-18)
(54.2418388868 -0.165928719553 -9.04649054486e-19)
(54.1121510921 -0.363622201334 -2.95876712634e-18)
(54.3990952878 -0.371016725266 -1.74464817109e-18)
(54.5274046777 -0.170519067625 -4.7021278222e-19)
(51.3079564779 -0.0325950813726 -1.44950022955e-19)
(51.3021595865 -0.0217716184658 3.14518694014e-20)
(51.3331087979 -0.0651248465811 -2.67680669111e-19)
(51.3160897906 -0.0642407787183 4.11987982277e-21)
(51.3749448741 -0.0975879227064 2.95231443853e-20)
(51.3496437593 -0.106237656116 -3.75473460911e-19)
(51.4334111306 -0.129990789509 -1.99844599953e-19)
(51.4007579673 -0.148048951663 7.33582870578e-19)
(51.5084982044 -0.162416726035 -5.09926832884e-19)
(51.4681013797 -0.189854151778 1.17300608995e-19)
(51.6002280514 -0.194980728091 -9.42021453582e-20)
(51.5517185468 -0.231841704502 -6.7741944257e-19)
(51.7086846941 -0.227762313141 -4.19563156756e-19)
(51.6520629902 -0.274166704972 2.324096297e-19)
(51.833995721 -0.260777061125 -6.26286580191e-19)
(51.7694085186 -0.316909991145 -2.87800765003e-19)
(51.9762908181 -0.293970361932 9.80280584235e-19)
(51.9038786054 -0.360064716712 -3.41853848127e-19)
(52.1356571749 -0.327211076488 1.70316310865e-18)
(52.0555853227 -0.403526788279 1.21108959511e-18)
(52.3120934223 -0.360282709986 -4.89369105071e-19)
(52.2246293734 -0.447082102007 6.53632731056e-19)
(52.5054610541 -0.392877349219 -2.13953058453e-18)
(52.4110165234 -0.490396678433 -5.90220886443e-19)
(52.7154339489 -0.424593893358 -6.96134942484e-19)
(52.6145807115 -0.53301237858 -1.33949253899e-18)
(52.9414479354 -0.454940133525 3.0541863642e-18)
(52.8349323036 -0.574346073457 -1.62423271644e-18)
(53.1826532691 -0.483337922287 2.22197456907e-18)
(53.0714136888 -0.6136942317 2.62281198708e-18)
(53.4378715605 -0.509135775677 5.48368020881e-20)
(53.3230533869 -0.650240667134 8.87465792918e-19)
(53.7055612629 -0.531613452922 2.37415160432e-18)
(53.588518456 -0.683079655019 9.95466383521e-19)
(53.9837856517 -0.550037629683 -1.58580342535e-18)
(53.8661080422 -0.711205548408 4.43093841677e-18)
(54.2701523117 -0.563439561121 -3.79597980392e-18)
(54.1536157887 -0.733610559776 -5.93174428798e-18)
(54.4490752818 -0.747447662796 -7.86852571737e-19)
(54.5608534114 -0.571852289296 9.93040233962e-19)
(51.308412066 -0.053700133285 1.80498663397e-19)
(51.3022214992 -0.0323320598099 6.05965253744e-20)
(51.3339282621 -0.106608196272 -1.0360162463e-19)
(51.3164127657 -0.0963060323368 8.15510323628e-20)
(51.3762845968 -0.158838781389 3.28271733749e-19)
(51.3502433167 -0.159516276037 -4.42859561489e-19)
(51.435311512 -0.210764702044 1.05061504925e-18)
(51.4015985853 -0.22237048509 -3.389626892e-19)
(51.5110010468 -0.262725990619 -5.0106813563e-20)
(51.4692215972 -0.285253477885 1.06824832645e-18)
(51.6034486457 -0.314985903731 -3.50937690542e-19)
(51.5532527624 -0.348485649807 -1.4364110761e-19)
(51.712822818 -0.367715234405 3.63981941861e-19)
(51.6542429946 -0.412316161898 -5.67270559542e-19)
(51.8393378656 -0.420978361843 -3.61538249805e-21)
(51.7725694914 -0.476887097607 3.95136155543e-19)
(51.9832148723 -0.474720256725 -1.10690127335e-19)
(51.9084673366 -0.542205356047 5.93725008119e-20)
(52.1446368685 -0.528752642362 1.62673864237e-19)
(52.062168294 -0.608124078829 -3.75145007704e-19)
(52.3237003281 -0.582741191701 5.52262594574e-19)
(52.233899121 -0.674325448687 4.48567457669e-19)
(52.5203633013 -0.636197488723 2.08141195118e-19)
(52.4237941656 -0.740307852881 1.84540631671e-18)
(52.7343918944 -0.688475480352 -2.26598600245e-18)
(52.6318139008 -0.805377348245 3.74386302588e-20)
(52.9653061024 -0.738773600472 -2.05151299077e-18)
(52.8576882402 -0.868644229935 -3.8120024714e-18)
(53.2123267534 -0.786142245066 1.28940639355e-18)
(53.1008663066 -0.929029720834 2.08190519827e-18)
(53.4743259167 -0.829503584439 1.82578062763e-18)
(53.3604636399 -0.985276339015 7.91216542275e-19)
(53.749789994 -0.867657989003 3.05029411392e-18)
(53.6352039997 -1.0359857198 -1.02793984679e-18)
(54.0367741445 -0.899394541492 8.53965481119e-20)
(53.9234196033 -1.07959684983 1.47612413523e-18)
(54.3330632217 -0.923078508506 -2.92720729328e-18)
(54.2228474193 -1.11474814077 -2.36616626847e-18)
(54.5316870291 -1.13873019044 -8.60735491578e-19)
(54.6366891999 -0.938921770891 -4.91513501233e-19)
(51.3085737856 -0.074983884007 -3.83413602095e-20)
(51.3022326661 -0.0430953008945 4.17834413296e-19)
(51.3340636697 -0.149155549504 -2.57571561901e-19)
(51.3164558569 -0.128334656171 -1.81306117566e-19)
(51.376333682 -0.222736257605 -1.10986474079e-18)
(51.3502580596 -0.212675143863 -3.15090196044e-20)
(51.4353208804 -0.296217801605 -3.21365954784e-19)
(51.4015628806 -0.296618440353 -1.00458978402e-18)
(51.5111046036 -0.370037971808 9.74644505109e-19)
(51.4692381314 -0.38073010165 -2.81197232252e-19)
(51.6038890405 -0.444533434866 -3.59861607641e-19)
(51.5535517578 -0.465488906532 2.38178883758e-19)
(51.7139656292 -0.51992476086 -5.35962964971e-19)
(51.6551729793 -0.551254790115 -1.08163110091e-18)
(51.8416790189 -0.596293107366 4.57955876921e-19)
(51.7746097156 -0.638239570844 -1.85568310264e-19)
(51.9873901534 -0.673553241479 -2.04921300674e-19)
(51.9122499356 -0.726474893858 8.59863563052e-19)
(52.1514325112 -0.751429158149 -8.92623570348e-20)
(52.0684964318 -0.815782440654 -7.44623779988e-19)
(52.3340597498 -0.829434903657 1.74057547983e-18)
(52.2437581927 -0.905748800415 -3.06401878279e-19)
(52.5353884941 -0.906861160302 1.6738432731e-18)
(52.4383574796 -0.995706043594 -1.41693634014e-19)
(52.7553388556 -0.982767425723 -1.50856433563e-18)
(52.6524430155 -1.08471572722 1.50161792243e-18)
(52.9935727744 -1.05598411961 3.17579661287e-19)
(52.8859251141 -1.17156353756 -1.94938399373e-18)
(53.2494339761 -1.12512319087 1.58389890732e-18)
(53.1384158971 -1.25476844885 1.72298932854e-18)
(53.521889556 -1.18860408426 -2.05659986123e-18)
(53.4091685277 -1.33259581202 1.79815063366e-18)
(53.8094780439 -1.24466262723 -2.59379809715e-18)
(53.6970028815 -1.4030999424 -5.06257153393e-19)
(54.1102559207 -1.291507016 -9.72985652038e-19)
(54.0003077114 -1.46409732856 -1.64108356988e-18)
(54.4217359371 -1.32672560027 -3.05201257762e-19)
(54.3168003529 -1.5135192325 -5.61844219105e-19)
(54.6445465457 -1.54722307557 -1.26197123082e-18)
(54.7403928465 -1.35069508498 8.41748819857e-19)
(51.3085543623 -0.0963586138841 2.74991714226e-19)
(51.3022225504 -0.0538339313702 6.10131666032e-20)
(51.3339855386 -0.191774224756 4.46806973625e-20)
(51.3163832575 -0.160285525806 1.50547467507e-20)
(51.376202063 -0.286525000388 7.37580844052e-20)
(51.3500613841 -0.265754272784 -8.89133749514e-20)
(51.4352421843 -0.381219593765 -9.64365933534e-19)
(51.4012484595 -0.370906600212 3.04103545657e-19)
(51.5112841359 -0.476442411516 -1.01719788308e-18)
(51.4689188311 -0.476485325598 -7.17837410481e-19)
(51.6046437134 -0.572676384055 -4.83346696895e-19)
(51.5534678725 -0.583142860884 5.77459924694e-19)
(51.7157505409 -0.670258689732 -7.31271762607e-19)
(51.6557109927 -0.691383047394 -3.16542676676e-19)
(51.8451128722 -0.769341563731 2.16265488353e-19)
(51.7763297426 -0.801518758379 -1.35773733227e-18)
(51.9932762879 -0.869855732913 3.20104714594e-19)
(51.9159159477 -0.913631607832 1.02076336348e-19)
(52.1607754244 -0.971478259036 -9.61131486335e-19)
(52.0751009965 -1.02753226827 3.31488271907e-19)
(52.348076535 -1.07360536746 -2.18546128116e-18)
(52.2545398995 -1.14272539063 2.01360937895e-19)
(52.5555145764 -1.17533079556 -3.12537147768e-19)
(52.4548123486 -1.25837949447 -2.1403805782e-18)
(52.7832250497 -1.27543344997 1.05877164953e-18)
(52.6763282358 -1.37330396182 -3.10538489341e-19)
(53.0310712182 -1.37237865451 -5.43216689449e-19)
(52.9192519954 -1.48594160748 2.69949522678e-19)
(53.2985737121 -1.46433003312 1.93651840756e-18)
(53.1834294533 -1.59437633286 -2.1660609001e-18)
(53.5848395114 -1.54918116491 3.34111281617e-18)
(53.4683162957 -1.6963455522 2.22225668639e-18)
(53.8885027925 -1.62456642258 4.41960438908e-19)
(53.7728779964 -1.78929669119 3.29412707807e-18)
(54.2076635777 -1.68806312656 -1.22961877242e-18)
(54.0956162263 -1.87035680041 1.57483575412e-19)
(54.5399771036 -1.73642340379 -1.51599072472e-18)
(54.4341917051 -1.93687924182 -1.07387516445e-18)
(54.786924932 -1.98393964864 -5.12526589931e-18)
(54.8824952126 -1.76992392855 -3.50301046491e-18)
(51.3084966706 -0.117639220056 -1.98915383277e-19)
(51.3022005214 -0.0644999682115 -8.27215803194e-19)
(51.333775135 -0.234205522551 -1.18485688882e-19)
(51.3162210292 -0.192040691967 1.89431063961e-19)
(51.3757823403 -0.35012085679 1.41324546379e-19)
(51.349593379 -0.318558496791 -5.89230816485e-19)
(51.4346411783 -0.466206462829 5.50431177726e-19)
(51.4003953917 -0.444941994128 4.17455908585e-19)
(51.5106513393 -0.583258923551 8.76020380953e-19)
(51.4677267637 -0.572156661099 3.44950112011e-20)
(51.604281308 -0.701949626993 7.43944800796e-19)
(51.5521392161 -0.701067133864 7.42611457166e-19)
(51.7161470757 -0.822762021696 -9.42735687819e-19)
(51.6546369032 -0.832363267579 1.38919240112e-18)
(51.8469764258 -0.945941034906 -1.47119768014e-18)
(51.7761263746 -0.966499775362 -3.40345263044e-19)
(51.9975634755 -1.0714483275 1.13484120164e-19)
(51.9174609783 -1.10364334722 -1.52739667124e-18)
(52.1687151452 -1.19892077572 1.49220824539e-18)
(52.079566079 -1.24362258054 -4.22582833408e-19)
(52.3611885358 -1.32763234821 2.44761067125e-19)
(52.2634172504 -1.38588041002 2.50084879841e-18)
(52.5756198304 -1.45646303824 -2.13676253677e-18)
(52.4699343852 -1.52943187931 -8.33424553943e-19)
(52.8124454794 -1.58388111261 -1.09731583734e-18)
(52.6998772948 -1.67283269379 -3.30939901275e-18)
(53.0718162004 -1.70794006954 -1.35157995121e-18)
(52.953757685 -1.81416374691 1.023643058e-18)
(53.3535099749 -1.82628851581 -1.87578519521e-18)
(53.2317484299 -1.95103145031 2.89146670669e-19)
(53.6568451792 -1.93620919465 2.17665248771e-18)
(53.5335954959 -2.08058044751 -1.4825060356e-18)
(53.9805982204 -2.03463166966 3.00587805165e-18)
(53.8584852089 -2.19956274031 1.45376478865e-18)
(54.3229135855 -2.11839875172 3.10695817883e-19)
(54.2050798903 -2.30429075501 -9.15477384526e-19)
(54.681275548 -2.18329981722 -4.6752692522e-18)
(54.5710131527 -2.39125866408 -4.27068867972e-19)
(54.9547001519 -2.45418945696 -6.17842652495e-18)
(55.0520409559 -2.2296316228 7.42837460264e-19)
(51.3083837641 -0.138709107785 -4.39041211375e-19)
(51.3021602942 -0.0750242582936 -2.99422999297e-19)
(51.3333258308 -0.276266448177 -2.81161736949e-19)
(51.3159213264 -0.223370230385 -2.03513164241e-19)
(51.3748348711 -0.413291582533 -3.13179684413e-19)
(51.3487041558 -0.370726842682 -5.63347485504e-19)
(51.4331412774 -0.550858514057 -9.82703640164e-20)
(51.3987069973 -0.518261599909 -3.99575691025e-19)
(51.5086965153 -0.69000355518 -9.87052576221e-20)
(51.4651906143 -0.667217507334 -4.63877761698e-19)
(51.6021601228 -0.831613137061 1.38746872579e-18)
(51.5488929802 -0.818720137604 2.06425123415e-19)
(51.7143779259 -0.97634968235 1.99044963836e-18)
(51.6510409593 -0.973693248173 1.77429447594e-18)
(51.8463472277 -1.12458761154 -3.96927147106e-19)
(51.7728108808 -1.13278207849 1.10876500037e-18)
(51.9991699174 -1.27635568435 -2.06217993695e-18)
(51.9153744131 -1.29628486733 -5.18889889561e-19)
(52.1739950928 -1.43128205864 5.86334278135e-19)
(52.0800200399 -1.46408907566 -6.47218499055e-19)
(52.3719506231 -1.58854267896 1.42201151468e-18)
(52.268125902 -1.6356091666 2.15287338479e-18)
(52.5940628936 -1.74681803091 -2.0059013959e-18)
(52.4810467629 -1.80972974801 1.23726797349e-19)
(52.8411656988 -1.90426416306 -1.18865434568e-18)
(52.719999028 -1.98475959795 -2.85540253779e-18)
(53.1137986437 -2.05850025676 2.65958612302e-18)
(52.9859584586 -2.15840159186 -8.43360248266e-19)
(53.4120987303 -2.20661313156 6.79626488818e-19)
(53.2795473168 -2.32774257947 3.03896215586e-18)
(53.7356881341 -2.3452013507 -2.19908824394e-18)
(53.6009243837 -2.48926256639 -2.09563556509e-18)
(54.0835684206 -2.47038616697 -2.45869935893e-18)
(53.9496059371 -2.63891196067 -1.53452318824e-18)
(54.4540039753 -2.57813318527 -1.64977821696e-18)
(54.324526168 -2.77204721722 9.31210983836e-19)
(54.8445264728 -2.66306144935 -1.93376981742e-18)
(54.7233334037 -2.88421118155 1.01334420081e-18)
(55.1448278556 -2.96773347729 -1.21212604281e-18)
(55.2514375793 -2.72522393901 1.31077997627e-18)
(51.3081865464 -0.159391857057 -6.38976583857e-20)
(51.3020944823 -0.0853011652163 3.71388076138e-19)
(51.332538252 -0.317610035431 -4.85620489501e-19)
(51.3154308328 -0.253956324473 -1.07837857403e-18)
(51.3731405314 -0.475527749669 -6.49693000466e-19)
(51.3472324333 -0.421748880914 2.2892877658e-19)
(51.4303495696 -0.634524790391 -7.65017845269e-19)
(51.3958537792 -0.59018588986 -3.03759181014e-19)
(51.5047896249 -0.7959330974 -1.58817682966e-19)
(51.460749928 -0.760846037231 -7.37802971253e-19)
(51.5973402366 -0.960914307716 5.93412933588e-19)
(51.5428692848 -0.935174401014 -5.24919593264e-19)
(51.7091166023 -1.13037272837 8.93147130298e-19)
(51.6436907673 -1.11438973793 6.01268811673e-19)
(51.8414374725 -1.30487416784 9.86169656562e-19)
(51.7647048609 -1.29939191149 9.33986755482e-19)
(51.9957786766 -1.48457130166 8.94231661895e-19)
(51.9074625128 -1.49067488941 -3.75906364018e-19)
(52.1737130468 -1.66913236354 9.18916304375e-19)
(52.0736923936 -1.68824535295 4.11887141262e-19)
(52.3768364603 -1.85767282254 8.55113089095e-19)
(52.2652693045 -1.8915424671 2.05072479092e-18)
(52.6066787713 -2.04869488832 -7.26760023754e-19)
(52.4840958197 -2.09936151341 -2.70973603841e-19)
(52.864598692 -2.24004082721 -2.50870738117e-18)
(52.731977359 -2.30978691033 -1.10147222528e-18)
(53.1516628733 -2.42886567179 -4.60409178074e-19)
(53.0105038276 -2.52014110405 -1.49146688203e-18)
(53.4685111536 -2.61163161846 2.64401657059e-19)
(53.3209099155 -2.72695765612 -4.56320884638e-19)
(53.8152112908 -2.78414974841 -1.43227668827e-18)
(53.6639384 -2.92597549375 -2.47459112854e-19)
(54.1911148463 -2.9415839289 1.84808705262e-18)
(54.0395988332 -3.11221237694 -6.88321080503e-19)
(54.5946954834 -3.07884525314 3.58524561431e-18)
(54.4472482273 -3.27988369737 2.96026537335e-18)
(55.0234979922 -3.1891727042 1.72813803425e-18)
(54.8846249593 -3.42332359194 1.010061868e-18)
(55.351086488 -3.53308530961 9.04178770798e-20)
(55.4734793993 -3.272283417 -8.69591972347e-19)
(51.3078754455 -0.179439046731 -6.42859147499e-19)
(51.3019948165 -0.0951879828272 6.60471318486e-19)
(51.3312946495 -0.357747647556 -3.6405493866e-19)
(51.314688352 -0.28337086781 -3.77852149932e-19)
(51.3704280321 -0.536119945513 5.74729756279e-19)
(51.3449882533 -0.470922547063 1.66876152085e-19)
(51.4257713814 -0.716304946863 -2.7659489544e-19)
(51.3914437806 -0.659757033432 4.4768074482e-19)
(51.4981420991 -0.899994373505 -1.10362509522e-18)
(51.4537378205 -0.851854899108 7.73106151672e-19)
(51.5886687891 -1.0886916641 -5.1678377163e-19)
(51.5330499595 -1.0490501113 -9.64358003774e-19)
(51.6987765009 -1.28361243009 6.42182537858e-19)
(51.6311357553 -1.25293173023 -1.47614490125e-19)
(51.8301598878 -1.48558443964 -4.27259504894e-19)
(51.7498410411 -1.46473571797 5.92216362734e-19)
(51.9847393522 -1.69495322433 -8.57302371802e-19)
(51.8911568483 -1.68523604219 -5.97793968078e-19)
(52.1646006909 -1.91149159257 1.5431898436e-18)
(52.0573323625 -1.91464202258 -1.99903797774e-18)
(52.3719182586 -2.13431062027 9.24761236715e-19)
(52.2508412877 -2.15249676951 2.48074596781e-18)
(52.6088587273 -2.36177565823 -6.4582058378e-19)
(52.4742627868 -2.39757568164 9.99117925756e-19)
(52.8774619973 -2.5914342986 -8.67304963924e-20)
(52.7301498216 -2.64778985404 -2.92291982412e-18)
(53.1794979523 -2.81996518689 -1.48596724873e-18)
(53.0208948197 -2.90010362123 -1.83547788595e-18)
(53.5163000646 -3.04315123756 -9.6681900075e-19)
(53.3485590399 -3.15047775119 2.00792542989e-18)
(53.8885778027 -3.25590837381 4.93635490622e-19)
(53.7147045133 -3.39383563624 2.49485410158e-19)
(54.2962190491 -3.4522756674 4.26365980041e-19)
(54.1200693191 -3.62412502338 -1.57189212361e-18)
(54.7380693543 -3.62587311861 3.90435567334e-19)
(54.564681674 -3.8342047066 7.13859236761e-19)
(55.2118306352 -3.76824648252 -6.23152910293e-19)
(55.0464826089 -4.01691095955 -1.55483276135e-18)
(55.5658353534 -4.16056567289 5.18229566357e-20)
(55.7132307537 -3.87851065351 -4.05076867822e-19)
(51.3074163665 -0.198522527321 9.25513664937e-19)
(51.3018520436 -0.104499258623 2.19633977606e-19)
(51.3294584846 -0.396029507302 1.5300226153e-19)
(51.3136259517 -0.311057586992 1.71063726202e-18)
(51.3663854123 -0.594110196959 3.98710434338e-20)
(51.3417604515 -0.517326736705 -4.21160017259e-19)
(51.4188434168 -0.794953370074 1.49695196413e-18)
(51.3850401857 -0.725703883303 1.12170394164e-19)
(51.4878588538 -1.00068193512 9.11980301215e-19)
(51.4434095155 -0.93864373135 8.83296787037e-19)
(51.5748303183 -1.21321810877 -5.95194371916e-19)
(51.518292547 -1.15844483305 2.90616594926e-19)
(51.6815250167 -1.43417497232 -1.97286378608e-19)
(51.6117333128 -1.38715604831 -2.90180949503e-19)
(51.8100626955 -1.66473647077 4.21292982496e-19)
(51.7259623276 -1.62645197413 -1.0909454464e-19)
(51.9628771808 -1.90553925579 -1.73890178241e-18)
(51.8634641456 -1.87749531802 5.53928624365e-19)
(52.1426593481 -2.15655878549 -1.05993148516e-18)
(52.0270864509 -2.14081034939 -2.28457731098e-18)
(52.352283359 -2.41699433831 2.55380798345e-18)
(52.2200082888 -2.41615957726 5.35473965972e-19)
(52.5947083789 -2.68515350568 -1.27724803105e-18)
(52.4456284655 -2.70241047823 2.59665806324e-18)
(52.872847937 -2.9583439347 -4.66730411038e-18)
(52.707434271 -2.99739715224 -9.56004997562e-19)
(53.1894038086 -3.23278422901 1.65494887517e-18)
(53.0088549812 -3.29779210899 -2.0300981313e-18)
(53.5466629066 -3.5035399001 3.21940159772e-18)
(53.3530588597 -3.59900184655 1.39258233207e-18)
(53.9462567928 -3.76452317643 -1.81305092591e-18)
(53.7427506704 -3.89508481504 -4.58399295169e-19)
(54.3888914215 -4.00845373833 -1.28174788156e-18)
(54.1797354481 -4.1787752557 -2.85891065025e-18)
(54.8740395325 -4.22736981892 -1.22907964938e-18)
(54.6650910315 -4.44132123331 1.51109685763e-18)
(55.3997333718 -4.41070545344 -8.79858371061e-19)
(55.1971712374 -4.6736806763 -9.39936943984e-20)
(55.7779884292 -4.86130079296 5.65161034833e-19)
(55.9615240763 -4.55662683492 2.78979861311e-18)
(51.3067723568 -0.21622554035 1.00457992603e-18)
(51.301656436 -0.113003313581 -2.40885485939e-19)
(51.3268847138 -0.43162474657 1.13662107536e-18)
(51.3121731077 -0.336325070418 9.84144472095e-19)
(51.3606745909 -0.648259636548 -3.48820104101e-19)
(51.3373286991 -0.559799180765 -1.09297742368e-19)
(51.4089494457 -0.868834331048 -5.01116456694e-19)
(51.3761835243 -0.786408206034 4.76438492021e-20)
(51.4729526986 -1.09598195005 2.62094964562e-19)
(51.4289736722 -1.01914980966 -4.25367853028e-19)
(51.5543592656 -1.33213385493 5.95300657205e-19)
(51.4973662714 -1.26086053517 2.40220475397e-19)
(51.6552961658 -1.57940511301 -2.019751148e-19)
(51.5836866961 -1.51415268879 -2.21812898552e-19)
(51.7783456153 -1.83945131877 2.36901467507e-20)
(51.6905640138 -1.78126664494 3.04054844485e-20)
(51.9265153123 -2.11332530118 7.34720146853e-21)
(51.8210153993 -2.06389135287 -3.30461026974e-19)
(52.1031910722 -2.40134009838 -6.89231046634e-19)
(51.9785499357 -2.36301501484 -7.15675401154e-19)
(52.3120758294 -2.70292225698 5.79647999709e-19)
(52.1671503917 -2.67878366395 -7.28749882876e-19)
(52.5570977725 -3.01645283534 2.91428951567e-18)
(52.3911852699 -3.01032783848 5.94980688075e-20)
(52.8422748941 -3.33910822682 1.67565968121e-18)
(52.6552886306 -3.35556809698 2.57327644418e-19)
(53.1715301609 -3.66671480255 -2.28836838698e-18)
(52.9642098997 -3.71102327435 2.13253979836e-18)
(53.5484501336 -3.99362441034 -2.27980747034e-18)
(53.3225828418 -4.07163351859 -4.99327799538e-19)
(53.9759813276 -4.31265634163 -1.50492892264e-18)
(53.7346942324 -4.43059842351 1.14775537434e-19)
(54.4560640929 -4.61500179803 -6.71969112227e-20)
(54.203898676 -4.77932176617 4.92800213442e-19)
(54.9892012765 -4.89077175457 2.63981483196e-18)
(54.7328946771 -5.10716594144 3.54066122389e-18)
(55.5741129289 -5.12675839317 1.34763920256e-18)
(55.3208103676 -5.40275889048 -1.85820264918e-18)
(55.9722410309 -5.64796738163 8.88864000252e-19)
(56.20651811 -5.31966164945 -1.83367901245e-18)
(51.3059059681 -0.232036271662 -2.61353532894e-19)
(51.30140179 -0.12042159328 2.72708611283e-19)
(51.3234273836 -0.463505796913 -2.61590664195e-19)
(51.3102701025 -0.358346148107 -2.42913713924e-19)
(51.3529523015 -0.697033264325 2.87037818666e-19)
(51.3314739269 -0.596930978765 -4.33199227257e-19)
(51.3954603467 -0.935905441862 1.2329426978e-19)
(51.3644152541 -0.839894716045 -1.13790136446e-19)
(51.4523967113 -1.18333461123 -4.47083562626e-19)
(51.4096498139 -1.09081368004 -9.92024909515e-21)
(51.5256989933 -1.44236229696 -5.76538181872e-19)
(51.4690458321 -1.35313808338 2.25082910543e-19)
(51.6178574464 -1.71573867461 1.04614229667e-20)
(51.5451619192 -1.63016884702 -6.31791020014e-19)
(51.7319380007 -2.00573875627 -3.23581676627e-19)
(51.6410194724 -1.92486148666 1.48329790743e-18)
(51.8715560797 -2.31398866072 -1.05306188433e-18)
(51.7601929331 -2.23958431102 -2.28883518655e-20)
(52.0408606827 -2.64131648493 -7.551801921e-19)
(51.9068872034 -2.5759814286 -5.33608525747e-19)
(52.2445063734 -2.98757541324 -1.24766463106e-18)
(52.0859568407 -2.93481474981 5.75425477803e-19)
(52.487578684 -3.3514278858 -2.59359879939e-18)
(52.3028766044 -3.31573038104 2.03976495641e-19)
(52.7754661488 -3.73011566877 7.14870038951e-19)
(52.5636512717 -3.71699528411 -2.87102789818e-18)
(53.1136701493 -4.11923286165 3.91581433871e-18)
(52.8746773001 -4.13522542891 -2.15922412132e-19)
(53.507532181 -4.51250622041 1.89132144525e-18)
(53.2424992423 -4.56510302979 1.71746503662e-18)
(53.9618604078 -4.90163227649 2.10874118158e-18)
(53.6735732147 -4.9990858651 1.04346627707e-18)
(54.4804408821 -5.27607291113 4.09601715326e-18)
(54.1734918651 -5.4272063291 6.24907803365e-19)
(55.0654296426 -5.62360058414 -9.53359224224e-19)
(54.747432775 -5.83667404943 4.60643782492e-18)
(55.7167812039 -5.92767855364 -2.31131074521e-18)
(55.3959268971 -6.2132321376 2.29921061184e-18)
(56.1275024944 -6.53419785662 -2.81445366491e-18)
(56.4307694737 -6.18277981061 -1.60494289822e-18)
(51.3048274026 -0.245357583649 2.9116989156e-19)
(51.3011094267 -0.126487898653 2.70843993167e-19)
(51.3189269125 -0.490431060173 -4.14530300514e-19)
(51.3079488441 -0.376079912602 3.29298710598e-19)
(51.3428794195 -0.73856258164 -8.33969235015e-19)
(51.3240468345 -0.627087949151 -1.14614672431e-19)
(51.3777885198 -0.993676284797 -2.4697013166e-19)
(51.349337634 -0.883876999661 -1.34500417388e-18)
(51.425230387 -1.25960617842 6.62052286015e-19)
(51.3847386766 -1.15060920855 -8.38708151766e-19)
(51.4873539458 -1.54009659543 1.69731199105e-19)
(51.4322157179 -1.43144895281 5.88133248077e-19)
(51.5669823555 -1.83867063175 8.40767591448e-19)
(51.4944554659 -1.73053754858 4.82052552627e-19)
(51.6676745839 -2.15839321766 1.78329196089e-18)
(51.5748226959 -2.05174473257 6.82209847783e-19)
(51.7936514681 -2.50167345197 4.95985327169e-19)
(51.6774213484 -2.39825692646 1.69279460131e-18)
(51.9498543292 -2.87010324398 7.96304704678e-19)
(51.8071344988 -2.77260561535 2.72482648977e-19)
(52.1419811175 -3.26424254809 2.02533312834e-18)
(51.9697145173 -3.17647919682 6.53868345785e-19)
(52.3764499933 -3.68334257453 -7.52523569089e-20)
(52.1718422534 -3.61039605876 1.7549571404e-18)
(52.6603028188 -4.1250321764 -3.79846660361e-18)
(52.4210964506 -4.07336335372 -4.53236360621e-19)
(53.0010397092 -4.58497897412 -2.4093464466e-18)
(52.7258648913 -4.562515691 -4.12042436125e-18)
(53.4063408548 -5.05652591732 8.70311484745e-19)
(53.095126275 -5.07268772922 -5.33932603798e-19)
(53.8836336443 -5.53035247463 -4.37859649693e-19)
(53.5382638827 -5.59592574755 3.52758610241e-18)
(54.439458906 -5.99406882956 1.13885462195e-18)
(54.0640736845 -6.12103295338 1.08770854314e-18)
(55.0786213746 -6.43264875195 7.84634560063e-18)
(54.6815198586 -6.63289794277 1.57791894446e-18)
(55.8032288913 -6.82530564216 1.79020958651e-18)
(55.3936366566 -7.11371636436 3.97043822074e-18)
(56.2151462328 -7.53510601693 -4.39320688562e-18)
(56.6109406228 -7.16301433521 -7.87752854617e-19)
(51.3035622127 -0.255551896658 3.09018132014e-19)
(51.3008188972 -0.130967748131 -2.92984142659e-19)
(51.31326453 -0.51106504128 6.29186411252e-19)
(51.3053010255 -0.388304021733 3.10885453883e-19)
(51.3302401558 -0.770745701714 -6.2558125658e-19)
(51.3150293039 -0.648513103536 1.63344501282e-20)
(51.3554694096 -1.03920261144 -1.93656284306e-18)
(51.3307796086 -0.915754930896 -5.9624990581e-19)
(51.3906280012 -1.32094558092 -9.12453306403e-19)
(51.353856524 -1.19505518657 -1.02156667151e-18)
(51.4380101774 -1.62057364838 9.0030255898e-19)
(51.386085402 -1.4913507448 -1.79234990552e-18)
(51.5007035046 -1.94255336838 3.2364900986e-19)
(51.4301446074 -1.8097719 1.62418314816e-18)
(51.5826599323 -2.29083676774 5.91995785397e-19)
(51.4897842967 -2.15526103986 -1.88545837358e-18)
(51.688622864 -2.66881468902 1.46895414262e-18)
(51.5694857695 -2.53198397169 1.08831615556e-18)
(51.824315028 -3.07917139465 1.30331546955e-19)
(51.674632043 -2.94368206843 3.53136476511e-19)
(51.9965149231 -3.52357039349 3.84220471678e-19)
(51.8118119711 -3.39334118937 -1.17487518449e-18)
(52.2131003253 -4.00230022704 1.37590873632e-18)
(51.9889434093 -3.88282095614 -2.77012632585e-19)
(52.4830280187 -4.51388244067 -7.77306608132e-19)
(52.215306443 -4.41243052404 1.75284691016e-18)
(52.8162504592 -5.05459526187 -2.24445855615e-18)
(52.5015818955 -4.98048366613 -2.28755430276e-18)
(53.2234888922 -5.61790323206 2.12311119001e-18)
(52.8597430535 -5.58268632641 -2.48603189134e-18)
(53.7157937465 -6.19384376129 5.0480864862e-18)
(53.3030219619 -6.21137568161 5.3743091534e-18)
(54.3037930839 -6.76829479563 1.52683289304e-18)
(53.8446923066 -6.85467084211 6.56524359618e-19)
(54.9965902679 -7.32308447887 -2.28621815008e-18)
(54.4994225481 -7.49535522018 1.51690478564e-18)
(55.8001421027 -7.83214203683 -2.20951508258e-18)
(55.2745809014 -8.1114545739 3.41311558322e-18)
(56.1952490786 -8.66721460649 1.75824728345e-18)
(56.7148306895 -8.28089591601 -3.92834164546e-19)
(51.301153369 -0.261736621518 -2.91274389999e-19)
(51.3003296109 -0.132430534884 -5.84040963014e-19)
(51.3064255843 -0.52406828314 -3.01965795146e-19)
(51.3016471435 -0.394985184523 2.84712403611e-19)
(51.3151033097 -0.791546644773 4.57110860347e-20)
(51.3039920325 -0.659557978191 -3.02585834263e-19)
(51.3284219698 -1.0696075934 3.18658619717e-19)
(51.3083994186 -0.932741932345 -5.86727128197e-19)
(51.3483284203 -1.36341472224 -1.90131072686e-18)
(51.3167587591 -1.22044276723 6.21944238165e-19)
(51.3766783496 -1.67850105759 -1.06828907318e-18)
(51.3303759312 -1.52748390585 -1.5252803642e-18)
(51.4174375457 -2.02064569911 -5.84782065113e-19)
(51.351445848 -1.86163408788 1.84805464602e-20)
(51.4744562492 -2.39484976889 -1.38876880017e-18)
(51.3844026558 -2.22767757474 -1.35861000037e-18)
(51.5527957178 -2.80568411252 -2.73028891148e-20)
(51.4339111018 -2.63128394875 3.24218824701e-19)
(51.6588419445 -3.25725626474 -9.51924930774e-19)
(51.5055032354 -3.07783615502 1.39108634854e-18)
(51.8003575529 -3.75281234494 -1.83538054471e-18)
(51.6063480438 -3.57201676993 -6.53692541166e-19)
(51.986676579 -4.29428125525 1.00541085495e-19)
(51.7454703331 -4.11761262681 -1.27359074586e-18)
(52.2288353429 -4.88181492017 2.4160642816e-19)
(51.9338094312 -4.71700695897 1.65002449565e-18)
(52.5396653532 -5.51317275466 -2.52883503662e-18)
(52.1844756795 -5.3706803327 -8.75224547822e-19)
(52.9337093765 -6.18287616713 7.67703209737e-19)