/*--------------------------------*- C++ -*----------------------------------*\
  =========                 |
  \\      /  F ield         | OpenFOAM: The Open Source CFD Toolbox
   \\    /   O peration     | Website:  https://openfoam.org
    \\  /    A nd           | Version:  7
     \\/     M anipulation  |
\*---------------------------------------------------------------------------*/
FoamFile
{
    version     2.0;
    format      ascii;
    class       volScalarField::Internal;
    location    "1";
    object      V0;
}
// * * * * * * * * * * * * * * * * * * * * * * * * * * * * * * * * * * * * * //

dimensions      [0 3 0 0 0 0 0];

value           nonuniform List<scalar> 
7540
(
0.0498633574687
0.0499337491724
0.0500040547305
0.0500730860053
0.0501414431343
0.0502097680921
0.0502787310365
0.0503489856889
0.0504211855286
0.0504960105394
0.0505741410945
0.050656287983
0.0507432586258
0.0508359367043
0.050935241806
0.0510421245066
0.0511575831586
0.0512826803122
0.0514184528263
0.0515833628595
0.049862352522
0.0499295284477
0.0499964942955
0.0500619736104
0.0501265001705
0.0501907017963
0.0502552791405
0.0503208203211
0.0503878934192
0.0504571721787
0.0505292398093
0.0506046445218
0.0506841579915
0.0507686574455
0.0508589988
0.050956029121
0.0510606362112
0.0511737762796
0.0512963627235
0.0514475573812
0.0498612629421
0.0499237488988
0.0499858963112
0.0500463160487
0.0501054794599
0.0501640349698
0.0502226503475
0.0502816824991
0.0503415537411
0.050402871236
0.0504660369402
0.0505316669528
0.0506006508499
0.0506737520557
0.0507517355767
0.050835253988
0.0509250244524
0.0510219217237
0.0511267570847
0.0512595238278
0.049860592387
0.0499178435178
0.0499746861064
0.0500296818021
0.0500832148363
0.0501356950889
0.0501876834068
0.0502395287161
0.050291512876
0.0503441186561
0.0503979124416
0.0504536355399
0.0505118326663
0.0505729662898
0.0506378190712
0.0507071266083
0.0507815932449
0.0508619150669
0.0509488143233
0.0510628220733
0.0498603793853
0.0499119324923
0.0499629999547
0.0500120253846
0.0500592854744
0.0501049962636
0.0501496650205
0.0501937707506
0.0502376022315
0.050281667956
0.050326491186
0.0503723522018
0.0504194962385
0.0504683298491
0.050519869308
0.0505749436303
0.050633791753
0.0506971806984
0.0507660932357
0.0508612489849
0.0498606588714
0.0499061857286
0.0499511451057
0.0499938035888
0.0500344092055
0.0500732350248
0.0501106773697
0.0501471003998
0.0501828203602
0.0502182698572
0.0502536366159
0.0502890409572
0.0503250219134
0.0503619242713
0.0504001856405
0.0504404748187
0.0504836787618
0.0505306793281
0.0505817730133
0.0506578694538
0.0498614624955
0.0499008163966
0.0499395765024
0.0499759023682
0.0500100099605
0.0500421170043
0.050072464268
0.0501012899273
0.0501288229744
0.050155295156
0.0501808847721
0.0502058891215
0.0502307833033
0.0502557564911
0.0502808919917
0.0503067862306
0.0503343346844
0.0503642257111
0.0503974983156
0.0504552499397
0.0498627941372
0.0498959822413
0.0499285877218
0.0499586737813
0.0499863821558
0.0500118457579
0.0500351981238
0.0500565722275
0.0500761012433
0.0500939234876
0.0501101867357
0.0501250848035
0.0501388584167
0.050151726818
0.0501640826768
0.0501763956264
0.0501888043135
0.0502018848889
0.0502168432369
0.0502547839483
0.0498646371639
0.0498918164709
0.0499184401332
0.0499424976594
0.0499640443899
0.0499831204934
0.0499997615076
0.0500140027933
0.0500258835391
0.0500354525653
0.0500427766604
0.0500479541961
0.0500511227331
0.0500524637471
0.0500522416492
0.0500507956012
0.0500486264904
0.0500462671677
0.0500438737249
0.0500618371121
0.0498669681166
0.04988846035
0.0499093770117
0.0499277462298
0.0499435115867
0.0499566119686
0.0499669852319
0.0499745709244
0.0499793139613
0.049981170046
0.0499801132698
0.0499761460932
0.0499693102765
0.0499597006003
0.0499474858746
0.0499329276846
0.0499164103461
0.0498984487847
0.0498797074059
0.0498797503288
0.0498696676158
0.0498859038141
0.0499015798443
0.0499147579595
0.0499252680651
0.0499329496062
0.0499376454386
0.0499392011447
0.049937467264
0.0499323037439
0.049923586635
0.0499112172323
0.0498951338523
0.0498753271351
0.0498518598912
0.0498248907917
0.04979470395
0.0497617433448
0.0497265880655
0.0497082962329
0.0498726474207
0.0498841036126
0.0498952129058
0.0499038463647
0.0499097608629
0.0499127121241
0.0499124553103
0.0499087456831
0.0499013405134
0.0498900026635
0.0498745063047
0.0498546452952
0.0498302448304
0.0498011771586
0.0497673821472
0.0497288932255
0.0496858695217
0.0496386350188
0.0495876427903
0.0495509786161
0.0498759718899
0.049883255886
0.0498904953883
0.0498953120223
0.0498973928936
0.0498964151684
0.0498920512035
0.0498839697739
0.0498718371054
0.0498553190596
0.0498340853479
0.0498078165907
0.0497762151223
0.0497390205595
0.0496960311653
0.0496471318508
0.0495923293054
0.0495317943901
0.0494658224643
0.0494113418434
0.0498795820064
0.0498834987997
0.0498875994137
0.049889399203
0.0498884971567
0.0498844905038
0.0498769727194
0.0498655310597
0.0498497448771
0.0498291853153
0.0498034170975
0.049772003326
0.049734514473
0.0496905430394
0.0496397255401
0.0495817733346
0.0495165129889
0.0494439353012
0.0493641575836
0.0492927681112
0.0498832773901
0.0498847606919
0.0498865835906
0.0498862605707
0.0498833117012
0.0498772633799
0.0498676394323
0.0498539544156
0.0498357085529
0.0498123841246
0.0497834437884
0.0497483317866
0.0497064795303
0.0496573177278
0.0496002979739
0.049534927196
0.0494608176562
0.049377752019
0.0492856629126
0.0491986476939
0.0498868885739
0.049886928719
0.0498874349978
0.0498859586102
0.0498819664385
0.0498749325984
0.0498643263524
0.0498496031271
0.0498301965263
0.0498055109714
0.0497749154628
0.0497377394271
0.0496932722806
0.0496407695327
0.0495794701415
0.0495086323691
0.0494275974898
0.0493358891642
0.0492332535121
0.0491322270689
0.0498902756967
0.0498898925912
0.049890089658
0.0498884646022
0.0498844701307
0.049877550343
0.0498671379358
0.049852646826
0.0498334619596
0.0498089277413
0.0497783361885
0.0497409154901
0.0496958200122
0.0496421241896
0.0495788259094
0.0495048711495
0.0494192221575
0.0493210057542
0.0492097023427
0.049096335508
0.0498932992976
0.0498935374249
0.049894434432
0.0498936433326
0.0498906916076
0.049885000547
0.0498759815574
0.0498630276999
0.0498454993684
0.0498227072516
0.0497938943639
0.0497582164472
0.0497147196986
0.049662315267
0.0495997523914
0.0495255994954
0.0494382623525
0.0493361187635
0.0492178943504
0.0490929741432
0.0498957012884
0.0498974520319
0.0499001147873
0.0499012071741
0.049900335877
0.0498969794699
0.0498905436882
0.0498804268614
0.0498659965635
0.0498465648213
0.0498213656588
0.049789529796
0.0497500523969
0.0497017476367
0.0496431808507
0.0495725660272
0.0494876162849
0.0493853647359
0.0492621284859
0.0491229069135
0.0498973340526
0.0499012563082
0.0499068650654
0.0499115241735
0.0499146024894
0.0499157144442
0.0499144660203
0.0499103638102
0.0499028940031
0.0498914900818
0.0498755156138
0.0498542431166
0.0498268269643
0.0497922620677
0.0497493127572
0.0496963833165
0.0496312562389
0.0495505009478
0.0494478133165
0.0492805281656
0.0258077422982
0.0258831421473
0.02592676914
0.0259724418846
0.0260199040201
0.0260692669844
0.0261207599726
0.0261744419122
0.0262303729035
0.0262886138089
0.0263492256572
0.0264122690676
0.0264778037312
0.0265458879593
0.026616578298
0.0266899292002
0.0267659927389
0.0268448191381
0.026925947939
0.0270322979745
0.0257346818675
0.0258051875163
0.0258446341762
0.0258860590067
0.0259291341649
0.025973917007
0.0260206401976
0.026069361547
0.0261201422869
0.0261730453119
0.0262281339996
0.0262854714183
0.0263451197635
0.0264071399367
0.0264715912219
0.0265385310371
0.0266080147439
0.0266800966792
0.0267543278789
0.02685394983
0.0256340490056
0.0256979294346
0.0257315704141
0.0257670849055
0.025804338554
0.0258431798223
0.0258836980883
0.025925970001
0.0259700701482
0.026016071428
0.0260640451953
0.0261140612765
0.0261661878976
0.0262204915627
0.026277036922
0.0263358866704
0.0263971015336
0.0264607420807
0.0265263674288
0.0266176398452
0.0255292748054
0.0255864402342
0.0256144346545
0.025644048919
0.025675442527
0.0257083900727
0.025742811719
0.0257787998784
0.0258164413896
0.025855819452
0.0258970146664
0.025940105506
0.0259851684377
0.026032277817
0.0260815056291
0.0261329211148
0.0261865902979
0.0262425774475
0.0263004330541
0.0263842191013
0.0254224130333
0.0254727861136
0.0254954175095
0.0255193645547
0.0255448901417
0.0255719055882
0.0256002924002
0.0256301369285
0.0256615270214
0.0256945510692
0.0257292974352
0.0257658539753
0.025804307548
0.0258447434692
0.0258872448868
0.0259318920612
0.025978761531
0.0260279274997
0.0260789316611
0.026156216325
0.0253149959361
0.025358442414
0.0253757097587
0.0253940726362
0.0254138600639
0.025435059041
0.0254575426129
0.0254814035333
0.0255067383086
0.0255336460288
0.0255622275225
0.0255925846005
0.0256248192987
0.0256590330711
0.0256953259144
0.0257337954371
0.0257745359098
0.0258176401312
0.0258626458601
0.0259343594881
0.0252083826795
0.0252446874456
0.0252565526151
0.0252694055751
0.0252835805049
0.0252990786331
0.0253157785505
0.0253337900523
0.0253532265267
0.0253742045037
0.0253968433381
0.0254212647192
0.0254475919456
0.0254759489501
0.0255064590659
0.0255392435312
0.0255744197405
0.0256121025547
0.0256518202686
0.0257187184342
0.0251029347522
0.0251324827424
0.0251393244873
0.025146764231
0.0251553415919
0.0251651704231
0.0251761348078
0.0251883636691
0.0252019898513
0.0252171502882
0.0252339870211
0.0252526471598
0.0252732822059
0.0252960469238
0.0253210977354
0.0253485905097
0.0253786775511
0.0254115073873
0.0254466039383
0.0255094317301
0.0250009107282
0.0250226521546
0.0250242764596
0.0250268170879
0.0250302168223
0.0250344408274
0.0250396465641
0.0250460949929
0.0250539298279
0.0250633040678
0.0250743849777
0.0250873507742
0.0251023892085
0.0251196965554
0.0251394764313
0.0251619380201
0.0251872932944
0.025215757042
0.0252468874351
0.0253064827783
0.0249053984387
0.0249192005492
0.0249148792171
0.0249110905693
0.0249083180396
0.0249070799647
0.0249070543234
0.0249079259754
0.0249099563649
0.0249134954339
0.0249187619266
0.0249259736115
0.0249353610975
0.0249471704745
0.024961664391
0.0249791232158
0.0249998474428
0.0250241681398
0.0250517667998
0.0251089097893
0.0248159356281
0.0248227161841
0.0248132897312
0.0248036298306
0.0247942212196
0.0247858669614
0.0247791803367
0.0247743705595
0.0247709960381
0.0247687319878
0.024767995025
0.024769266243
0.0247727935175
0.0247788678789
0.0247878061508
0.0247999465009
0.0248156482419
0.0248353019281
0.024858606892
0.0249122387127
0.0247332560215
0.0247324197867
0.024718312106
0.0247043152703
0.0246900032805
0.024675413868
0.024661340779
0.024648748517
0.024638257853
0.024629816573
0.0246231540494
0.0246183466536
0.0246157218364
0.0246157186512
0.0246187315759
0.0246251566677
0.0246353894791
0.0246498244436
0.0246680638597
0.0247170084855
0.0246598300536
0.0246512872415
0.0246319836064
0.0246126869097
0.0245934118866
0.0245741304177
0.024554544332
0.0245347340269
0.0245158982278
0.0244995003109
0.0244860444044
0.0244749418207
0.0244657757888
0.0244591870015
0.02445590503
0.0244563831326
0.0244611062537
0.0244705743066
0.0244844603341
0.0245298843394
0.0245974579245
0.024581332774
0.0245570108306
0.0245323656723
0.0245074270845
0.0244823574721
0.0244573309106
0.0244323395844
0.0244072577245
0.0243825705041
0.0243597361002
0.0243400962344
0.0243237443728
0.0243104408062
0.0243005771541
0.0242948301585
0.0242939248162
0.0242986187128
0.0243088267105
0.024351831806
0.0245479596425
0.0245245478224
0.024495535163
0.0244658369657
0.0244354808363
0.0244046106923
0.0243734240801
0.0243421999493
0.0243110203828
0.0242795979548
0.02424825984
0.0242188469368
0.0241933094224
0.0241720314288
0.0241546601727
0.0241417057779
0.0241343189592
0.0241336217473
0.0241397894816
0.0241799011193
0.0245130728859
0.0244828911582
0.0244497171184
0.0244154766435
0.0243801435644
0.0243437730415
0.024306471345
0.0242684199522
0.0242298970906
0.024191247867
0.0241526835602
0.0241144519578
0.024078196444
0.0240466701049
0.0240204133256
0.0239988169561
0.0239832236113
0.0239757379259
0.0239772941351
0.0240143752393
0.0244942243771
0.0244580431819
0.0244215906747
0.0243838109067
0.0243445350351
0.0243036303304
0.0242610238917
0.024216749769
0.0241709899524
0.0241241070821
0.024076674608
0.0240291653485
0.023982063131
0.023938010672
0.0239001871814
0.0238686224424
0.0238438722813
0.0238286710829
0.0238239129216
0.0238561245139
0.0244918963718
0.0244505045562
0.0244121874167
0.0243727383748
0.0243315881244
0.0242881890196
0.0242420975394
0.0241930438174
0.0241410096299
0.0240862950453
0.0240295282506
0.0239716517911
0.0239131876675
0.0238552942607
0.0238022376276
0.0237575434632
0.0237216951539
0.0236964153474
0.0236835918859
0.0237098080492
0.0245035788647
0.0244563675019
0.0244188140287
0.0243814547589
0.0243424347637
0.0243004150935
0.024254302606
0.0242032008676
0.0241466350806
0.0240848920955
0.0240188556874
0.0239495762956
0.0238780393492
0.0238050736182
0.023733920075
0.0236707963713
0.0236189666949
0.0235792581496
0.0235549307538
0.0235751187686
0.0245797862327
0.0245703392267
0.0245497102994
0.0245272015402
0.0245020010848
0.0244732980582
0.0244399364819
0.0244000650867
0.0243519216987
0.0242961737611
0.0242348961545
0.0241686305014
0.0240968928381
0.0240193151941
0.0239368812484
0.0238544584355
0.0237778715033
0.0237073479555
0.0236385676501
0.0235877393669
0.0135059483238
0.0135601774828
0.0135831551431
0.0136067758038
0.0136310922329
0.0136554732409
0.0136798824797
0.0137046215921
0.0137296894841
0.0137550805561
0.0137807891649
0.013806814021
0.0138331552763
0.0138598113877
0.0138867801355
0.0139137541967
0.0139408245137
0.013968684081
0.0139972154315
0.0140260009616
0.0140550327302
0.0140843037277
0.0141138073185
0.0141435370663
0.0141734866388
0.0142036497945
0.014234020393
0.0142645924135
0.014295359985
0.0143263174293
0.0143574594209
0.0143884579142
0.0144194435375
0.0144511891523
0.0144835254422
0.0145159499449
0.0145484398106
0.0145809846908
0.0146135759143
0.0146462039414
0.0146788593061
0.0147115325138
0.0147442140289
0.0147768942657
0.0148095225114
0.0148419648956
0.0148745055171
0.0149075867432
0.0149409150086
0.0149741075542
0.0150071386333
0.0150399979665
0.0150726774748
0.0151051677229
0.0151374554361
0.0151703386331
0.0134142900827
0.0134662816913
0.0134873673358
0.0135090813268
0.013531440506
0.0135538269423
0.0135762232461
0.0135989370309
0.0136219651845
0.0136453010581
0.0136689394313
0.0136928798557
0.0137171223267
0.0137416647738
0.0137665049452
0.01379134068
0.0138162591859
0.0138419393676
0.0138682668614
0.0138948331303
0.0139216317021
0.0139486570931
0.013975903997
0.0140033671328
0.014031041172
0.0140589206868
0.0140870000962
0.0141152736025
0.014143735111
0.0141723781274
0.014201139038
0.0142298450383
0.014258728697
0.0142882366048
0.0143181512159
0.0143481494779
0.014378224925
0.0144083710918
0.0144385800681
0.0144688439228
0.0144991548243
0.0145295050696
0.0145598871346
0.0145902643324
0.0146205821723
0.0146509113797
0.0146814526414
0.0147122262372
0.0147430262219
0.0147737301299
0.0148043296078
0.0148348158319
0.0148651786879
0.0148954084388
0.0149254604482
0.0149561057837
0.0132930593949
0.0133423123116
0.0133611076528
0.0133804607648
0.0134003003094
0.0134202320667
0.0134402596125
0.0134605794223
0.01348118916
0.0135020833016
0.0135232589803
0.0135447181983
0.0135664615712
0.0135884867068
0.0136107914518
0.0136331066718
0.013655529697
0.013678688877
0.0137024565603
0.0137264411548
0.0137506407379
0.0137750536562
0.0137996778522
0.0138245109704
0.0138495504686
0.013874793697
0.013900237972
0.0139258806538
0.0139517192386
0.0139777518897
0.014003774481
0.0140297896764
0.0140562623929
0.0140832205587
0.0141103532282
0.0141375814454
0.0141649042412
0.0141923157356
0.0142198085729
0.0142473754075
0.0142750088322
0.0143027013611
0.0143304278867
0.0143581580596
0.0143859506544
0.0144139124496
0.0144420097676
0.0144701098634
0.0144981498944
0.0145261294975
0.0145540484851
0.0145818995833
0.0146096735972
0.0146373397796
0.0146648532268
0.0146930811323
0.0131735587971
0.0132203889419
0.013237229923
0.0132546683896
0.0132723555614
0.0132901683622
0.0133082106097
0.0133265250073
0.0133451115858
0.0133639669119
0.0133830911286
0.0134024891017
0.0134221617653
0.0134421053136
0.0134622930325
0.013482618397
0.0135032173617
0.0135243997026
0.0135460300704
0.01356788001
0.0135899476328
0.0136122312456
0.0136347288577
0.0136574382742
0.0136803571476
0.013703482988
0.0137268131656
0.0137503449069
0.0137740756095
0.0137980015767
0.0138219944792
0.0138461389961
0.0138707529003
0.0138957034241
0.013920753359
0.0139459077945
0.013971167693
0.0139965299096
0.014021990235
0.0140475438102
0.0140731852632
0.0140988690963
0.0141245618496
0.0141503474993
0.0141763127939
0.0142024069246
0.0142285187625
0.0142545972332
0.0142806429827
0.0143066589112
0.014332641085
0.0143585821863
0.0143844613248
0.0144102540285
0.0144359968894
0.0144625509124
0.0130571352328
0.0131019290241
0.0131171146289
0.0131330206941
0.0131490226309
0.0131650762686
0.0131814103747
0.0131980274254
0.0132149267889
0.0132321050304
0.0132495647137
0.0132673148026
0.0132853589561
0.0133036954256
0.0133221439197
0.013340739228
0.0133598806505
0.0133795436728
0.0133994812728
0.0134196540483
0.0134400586095
0.0134606920581
0.0134815516556
0.0135026347767
0.0135239388233
0.0135454611317
0.0135671988927
0.0135891490918
0.0136113162348
0.0136337258865
0.0136564053675
0.0136793620518
0.0137025619654
0.0137259287605
0.0137494232524
0.013773049931
0.0137968088569
0.0138206983592
0.0138447165586
0.0138688617016
0.0138931328641
0.0139173089812
0.0139413933627
0.0139658287431
0.0139905773627
0.0140153477911
0.0140401033547
0.0140648475248
0.0140895859656
0.0141143172257
0.0141390362587
0.0141637326264
0.0141883983638
0.0142130583432
0.014237736254
0.0142631517484
0.0129441376579
0.0129872698853
0.0130010147932
0.0130155399496
0.0130301261848
0.013044744569
0.0130596609587
0.0130748779762
0.0130903943608
0.013106205455
0.0131223153241
0.0131387381938
0.0131554818684
0.0131725463559
0.0131896441922
0.0132068329237
0.0132247314891
0.0132432379957
0.0132619771902
0.0132809509706
0.0133001612729
0.0133196093406
0.013339295885
0.0133592212257
0.0133793853143
0.0133997876988
0.0134204274487
0.0134412944683
0.0134624249657
0.0134838757998
0.0135056065662
0.0135275316552
0.0135496127793
0.0135718496833
0.0135942469196
0.0136168038386
0.0136395175298
0.0136623847499
0.0136854021699
0.0137085668453
0.0137318847332
0.0137551913436
0.0137785151921
0.0138021984072
0.0138261308872
0.0138500614316
0.0138739980583
0.0138979505985
0.0139219210318
0.0139459074377
0.0139699103057
0.0139939386393
0.0140180046959
0.0140420938808
0.0140661436587
0.0140908307686
0.0128345030336
0.0128762530687
0.0128887652031
0.0129021333865
0.0129155619199
0.0129290222867
0.0129427979468
0.0129568907544
0.0129712976062
0.012986014521
0.013001047513
0.0130164092446
0.0130321030141
0.0130481296978
0.0130644028155
0.013080972291
0.0130980843903
0.0131156491051
0.0131334702804
0.0131515496625
0.0131698895686
0.0131884924219
0.013207360871
0.0132264978633
0.0132459066885
0.0132655910363
0.0132855554552
0.0133056107324
0.0133257978083
0.0133465052472
0.0133676259294
0.0133888982321
0.0134103297452
0.0134319317222
0.0134537099511
0.0134756652002
0.0134977969911
0.0135201041233
0.0135425851647
0.0135652527596
0.0135881343795
0.0136112132681
0.0136344352828
0.0136577631816
0.0136811574266
0.013704598934
0.0137280967556
0.0137516527549
0.0137752651463
0.0137989420182
0.0138227029935
0.0138465409658
0.0138704010972
0.0138942153413
0.0139179358087
0.0139422616855
0.0127283113153
0.0127689711963
0.0127804676751
0.0127928998415
0.0128054115223
0.0128179732062
0.0128308842501
0.0128441428186
0.0128577441903
0.0128716917708
0.0128859992259
0.0129006756451
0.0129157213293
0.01293099312
0.0129465539587
0.0129627137932
0.0129793627395
0.012996285656
0.0130134834297
0.013030958905
0.0130487152436
0.01306675586
0.0130850844795
0.0131037051168
0.0131226220354
0.0131418400737
0.0131613917355
0.0131811363476
0.013201049289
0.0132214227922
0.0132421819622
0.0132631114757
0.0132842259557
0.0133055389807
0.0133270581035
0.0133487881492
0.0133707332216
0.0133928968627
0.0134153009633
0.0134379818464
0.0134609069235
0.0134839635468
0.0135070787276
0.0135302576957
0.0135535224234
0.0135768844609
0.01360034829
0.013623914434
0.0136475968795
0.0136714194944
0.0136953513689
0.0137192954627
0.0137431767398
0.013766977751
0.0137907008652
0.0138150332577
0.0126256231653
0.0126655657965
0.0126761549177
0.0126876312948
0.0126994167267
0.0127114354052
0.0127238260457
0.012736585537
0.0127497069943
0.0127631962485
0.0127770704616
0.0127913351409
0.0128060091963
0.0128210149003
0.012836342126
0.0128521861435
0.0128684813411
0.012885057921
0.0129019206777
0.0129190749832
0.0129365263598
0.0129542805255
0.012972343357
0.0129907207778
0.0130094189527
0.0130284787753
0.0130479790286
0.0130678871371
0.0130880456097
0.0131083857746
0.0131289311722
0.0131496997677
0.0131707073184
0.0131919638798
0.0132134770536
0.0132352549126
0.0132573251961
0.013279722162
0.0133024551401
0.0133254525181
0.0133485694152
0.013371736057
0.0133949826299
0.0134183453363
0.0134418417263
0.013465482209
0.01348929421
0.013513312054
0.0135375288883
0.0135618627178
0.0135861832702
0.0136104214291
0.0136345890115
0.013658709893
0.013682798441
0.0137075251239
0.0125259499095
0.0125656623622
0.0125757960742
0.0125867047058
0.0125980568481
0.0126098762141
0.0126221182498
0.0126347543099
0.0126477579056
0.0126611273464
0.0126748866164
0.0126890553912
0.0127034997753
0.0127182993931
0.0127337412299
0.0127496605372
0.0127658455355
0.0127823212808
0.0127990956458
0.0128161775728
0.012833576716
0.0128513033736
0.0128693684737
0.0128877839416
0.012906606033
0.0129259352176
0.0129457268123
0.0129657632354
0.0129859352961
0.0130062985788
0.013026907364
0.0130477815908
0.0130689343587
0.0130903747746
0.013112110712
0.0131341886298
0.0131569520587
0.0131803771818
0.0132037871657
0.0132270426574
0.0132503713302
0.0132738207669
0.0132974339128
0.0133212265441
0.0133452060998
0.0133694056779
0.0133941607159
0.0134194490535
0.0134445791673
0.0134694081393
0.0134941662419
0.013518886466
0.0135436007633
0.0135683191833
0.0135930633057
0.0136187451956
0.0124263213512
0.0124662599517
0.0124771087042
0.0124888589734
0.0125010079816
0.0125136671972
0.012526686481
0.0125399173814
0.0125532483313
0.0125666748929
0.0125803183924
0.012594397396
0.0126089908716
0.0126240449811
0.0126396414875
0.0126556825506
0.012671990234
0.0126885774989
0.0127054650827
0.0127226723846
0.0127402155147
0.0127581091461
0.0127763678656
0.0127950470068
0.0128142800144
0.0128340341125
0.0128540409577
0.0128741749284
0.0128945161809
0.0129151361142
0.0129360621802
0.0129573154524
0.0129789134886
0.0130008730492
0.0130232542283
0.0130461445329
0.0130697348041
0.0130938013762
0.0131176750252
0.0131413783942
0.0131652692715
0.013189403427
0.0132138001981
0.0132384731994
0.0132634643084
0.0132888195462
0.0133147242052
0.0133409748986
0.0133668912234
0.0133924867114
0.0134181111064
0.0134438067329
0.0134695847937
0.0134954713734
0.0135214805936
0.0135483407551
0.0123264976592
0.0123648182397
0.0123740438019
0.0123841830087
0.012394989707
0.0124070354721
0.01242054871
0.0124355254889
0.0124517272118
0.012468823532
0.0124864198772
0.012503941543
0.012521170578
0.0125382733147
0.0125550864496
0.0125715751963
0.0125880216272
0.0126046910036
0.0126217625629
0.0126392560174
0.0126571405224
0.0126754236213
0.0126941375832
0.0127131106275
0.0127323778962
0.0127522393525
0.0127724901273
0.012792930987
0.0128136641294
0.0128347339713
0.0128561774918
0.012878027602
0.0129003161498
0.0129231200173
0.0129465294141
0.0129704217923
0.0129945066606
0.0130186726252
0.0130429976863
0.0130675731572
0.0130924596902
0.0131176910751
0.0131432933016
0.0131693232482
0.013195817829
0.0132226192071
0.0132494703223
0.0132762780842
0.013303096162
0.0133300026968
0.0133570529416
0.01338428943
0.0134117594877
0.013439431997
0.0134671224046
0.0134951100562
0.0122315996928
0.0122685033758
0.0122760797819
0.0122844516837
0.0122932117087
0.0123028756415
0.0123137887554
0.0123264262544
0.0123411849591
0.0123581892482
0.0123773163527
0.0123981182098
0.0124199643142
0.012442465508
0.0124650839792
0.0124871792618
0.012508373062
0.0125285193659
0.0125477717276
0.0125664444825
0.012584880655
0.0126034375088
0.0126224871291
0.0126419273118
0.0126614961
0.0126814501212
0.0127018486839
0.012722560002
0.0127436472823
0.0127651637757
0.0127871577292
0.0128096759177
0.0128328068305
0.0128566232754
0.0128809437697
0.0129054352644
0.0129300233609
0.0129548641296
0.0129800727142
0.0130057021132
0.0130317971642
0.0130584090632
0.0130855886545
0.0131132896519
0.0131412662199
0.0131692472847
0.013197204903
0.0132252695673
0.0132535288366
0.0132820180911
0.0133107958799
0.0133402500224
0.0133702756636
0.0133999323685
0.013429007555
0.0134582635356
0.0121423744094
0.0121793004542
0.0121870854057
0.0121961662036
0.0122057015518
0.0122156431089
0.0122258816709
0.0122365003411
0.0122479156115
0.0122608672032
0.0122760441762
0.0122939692553
0.0123148057622
0.0123380443403
0.0123630874595
0.0123893954532
0.0124162027226
0.0124427214499
0.0124683892485
0.0124929883394
0.0125165011905
0.0125389933946
0.0125606548222
0.0125816025724
0.0126018895705
0.0126219043247
0.0126422076753
0.0126630391155
0.012684411427
0.0127063706293
0.0127289773235
0.0127523322355
0.0127764777374
0.0128011504966
0.0128259764309
0.0128509213342
0.0128761957484
0.0129019453869
0.0129282409113
0.012955140655
0.0129827385554
0.0130114307323
0.0130410382135
0.0130705277834
0.0130996684794
0.0131288706087
0.0131583339933
0.0131881716219
0.0132184489444
0.013249234537
0.0132804658607
0.0133122017105
0.013344128277
0.0133754255239
0.0134061578786
0.0134371799646
0.0120561278254
0.0120927796483
0.0121001875605
0.0121092364834
0.0121193985882
0.0121306864602
0.0121430363678
0.0121562098918
0.012169980228
0.0121843651341
0.0121996304734
0.0122161362163
0.0122342400633
0.0122540917157
0.0122758182932
0.0122996402402
0.0123255966392
0.0123533933601
0.0123823750261
0.012411787805
0.0124410691926
0.012469755705
0.0124972151012
0.0125229585379
0.0125470661582
0.0125698920004
0.0125918788371
0.0126135592266
0.0126354399723
0.0126580042876
0.0126815212197
0.0127059097169
0.0127307802454
0.0127557652432
0.0127809183419
0.0128065237217
0.012832774936
0.0128597807891
0.0128876468846
0.0129164686323
0.0129461716513
0.0129767260284
0.0130077548355
0.0130384778785
0.0130690477496
0.0131000385174
0.0131315946155
0.0131638371642
0.0131972837496
0.0132317127776
0.0132657715143
0.0132991531882
0.0133323261131
0.0133654504018
0.0133986567458
0.0134323587575
0.0119733177263
0.0120097442207
0.0120172311464
0.0120263698462
0.0120368409102
0.0120486919793
0.0120619874199
0.012076850631
0.0120935449389
0.0121117498024
0.0121304593988
0.0121494934843
0.012169255577
0.012189909491
0.0122116045572
0.0122345176235
0.0122588790995
0.0122848722114
0.0123124984619
0.0123415380648
0.0123715590979
0.0124018540388
0.0124317066225
0.0124608330864
0.0124892029352
0.0125166864185
0.0125431744949
0.0125688063736
0.0125939052885
0.0126192160044
0.0126448464272
0.0126698883013
0.0126944857008
0.0127193969154
0.01274494831
0.012771373842
0.0127988364143
0.0128275227152
0.0128579867826
0.0128898938265
0.0129216899004
0.0129530486492
0.0129846004031
0.0130166676837
0.0130494656209
0.0130831328732
0.0131178068868
0.0131533938152
0.0131898397599
0.0132266363453
0.0132627109929
0.0132982300242
0.0133339236515
0.0133699575998
0.0134064538179
0.0134440819943
0.0118945447227
0.0119308209542
0.0119388441981
0.0119488397287
0.0119604633058
0.0119737796768
0.0119890539802
0.0120061927649
0.012024954719
0.0120455492535
0.0120674259604
0.0120896517314
0.0121121601115
0.0121351120593
0.0121585746763
0.0121829395054
0.0122085902833
0.0122353639162
0.012263070662
0.0122915310926
0.0123201280348
0.0123482925941
0.0123761825533
0.0124046057592
0.012433685833
0.0124628583003
0.0124923260684
0.0125227735624
0.0125537139082
0.012583829344
0.0126123879204
0.0126390299853
0.0126648564454
0.0126910902804
0.0127176791064
0.0127452643589
0.0127749644892
0.0128065827241
0.0128391516937
0.0128720869517
0.0129046888135
0.0129372833872
0.0129707984339
0.0130054920229
0.0130415131997
0.0130789830292
0.0131175300195
0.0131561919205
0.0131944479237
0.0132325521872
0.0132708983832
0.0133097585784
0.013349323954
0.013389714331
0.0134306078398
0.0134718491842
0.0118222435595
0.0118586592626
0.0118685843638
0.0118813853588
0.0118962750736
0.0119126113834
0.011930474021
0.0119500296487
0.0119707438198
0.0119925910078
0.0120161453985
0.0120409996489
0.0120662980222
0.0120923146651
0.0121191848973
0.0121459334893
0.0121721940542
0.0121984338008
0.0122248102998
0.0122514888503
0.0122784660186
0.012305472671
0.0123328680497
0.0123613461803
0.0123908928517
0.0124209412486
0.0124510637484
0.0124814573493
0.0125126584076
0.0125440136072
0.0125747051241
0.0126049965007
0.0126359157339
0.0126679680054
0.0126997215864
0.012730244737
0.012760882328
0.0127930022617
0.0128260771852
0.0128595221403
0.0128939693348
0.0129300143114
0.0129676260643
0.0130064828312
0.0130462739644
0.0130867480874
0.0131273602028
0.0131675149398
0.0132078400122
0.0132493661176
0.0132921166433
0.0133357193678
0.0133798867305
0.013424220254
0.0134680266927
0.0135109510826
0.0117590084265
0.0117984914896
0.0118138518886
0.0118323856679
0.0118520333291
0.011871977846
0.011892424955
0.0119141288466
0.0119374800633
0.0119618428983
0.0119868678939
0.0120131301935
0.0120400703366
0.0120672072956
0.0120951997636
0.0121235610963
0.0121505561341
0.0121755817832
0.012199320461
0.0122231503305
0.0122482299122
0.0122738923964
0.0122998299146
0.0123271144277
0.0123559851029
0.0123855794632
0.0124147304365
0.0124432848475
0.0124729037357
0.0125049309548
0.0125387859032
0.0125732105829
0.01260791484
0.0126441642804
0.0126817675896
0.012718399081
0.0127533352316