# Probe 0 (9.45 6.05 0)
#             Probe                   0
#              Time
              0.005                   (0 0 0)
               0.01                   (1.39159309813e-16 -3.66236066567e-17 0)
              0.015                   (-1.30435351992e-09 -5.00100507263e-11 0)
               0.02                   (-1.36313546016e-09 -1.84114706125e-10 0)
              0.025                   (-1.58818433914e-09 -7.28931550605e-10 0)
               0.03                   (-1.91418056372e-09 -2.34015591155e-09 0)
              0.035                   (-1.74858544762e-09 -6.09994325539e-09 0)
               0.04                   (-1.41251896992e-09 -1.3806495191e-08 0)
              0.045                   (-6.7742253192e-10 -2.90227011843e-08 0)
               0.05                   (7.81803168907e-10 -6.00659111433e-08 0)
              0.055                   (2.60935110018e-09 -1.14832602398e-07 0)
               0.06                   (5.24910167553e-09 -2.08133357882e-07 0)
              0.065                   (8.86025258511e-09 -3.57326060599e-07 0)
               0.07                   (1.36776331815e-08 -5.83844055317e-07 0)
              0.075                   (2.00093529995e-08 -9.13781119666e-07 0)
               0.08                   (2.82553078506e-08 -1.37702777543e-06 0)
              0.085                   (3.87954642954e-08 -2.0048558545e-06 0)
               0.09                   (5.18907441754e-08 -2.82763920508e-06 0)
              0.095                   (6.77044302502e-08 -3.87366024333e-06 0)
                0.1                   (8.63179105553e-08 -5.16858944733e-06 0)
              0.105                   (1.07653644769e-07 -6.73432197145e-06 0)
               0.11                   (1.31295427075e-07 -8.5866153275e-06 0)
              0.115                   (1.56361036384e-07 -1.07350952209e-05 0)
               0.12                   (1.81635750637e-07 -1.31889146547e-05 0)
              0.125                   (2.05899891057e-07 -1.59652970717e-05 0)
               0.13                   (2.28265006546e-07 -1.90992794254e-05 0)
              0.135                   (2.48540068301e-07 -2.26525067146e-05 0)
               0.14                   (2.67270120663e-07 -2.67159306497e-05 0)
              0.145                   (2.85404160413e-07 -3.14074326139e-05 0)
               0.15                   (3.04214906096e-07 -3.68731857854e-05 0)
              0.155                   (3.25585673335e-07 -4.32944859682e-05 0)
               0.16                   (3.52206198557e-07 -5.08934506225e-05 0)
              0.165                   (3.87438464996e-07 -5.99343056684e-05 0)
               0.17                   (4.35040120612e-07 -7.07242384874e-05 0)
              0.175                   (4.99097456011e-07 -8.36180514454e-05 0)
               0.18                   (5.84082357781e-07 -9.90258023245e-05 0)
              0.185                   (6.94826924026e-07 -0.000117420843245 0)
               0.19                   (8.36412251184e-07 -0.000139347073269 0)
              0.195                   (1.01388446552e-06 -0.000165423424519 0)
                0.2                   (1.23210695909e-06 -0.000196352405332 0)
              0.205                   (1.49678507985e-06 -0.000232946850221 0)
               0.21                   (1.81656503673e-06 -0.000276166589522 0)
              0.215                   (2.2041956597e-06 -0.000327135340083 0)
               0.22                   (2.6755817785e-06 -0.000387121103854 0)
              0.225                   (3.24774517203e-06 -0.000457495114192 0)
               0.23                   (3.93725946521e-06 -0.000539698911574 0)
              0.235                   (4.75996293499e-06 -0.000635231993951 0)
               0.24                   (5.73122154365e-06 -0.000745649393108 0)
              0.245                   (6.86602087172e-06 -0.000872557629087 0)
               0.25                   (8.17946758165e-06 -0.00101761431916 0)
              0.255                   (9.68803782224e-06 -0.00118253030471 0)
               0.26                   (1.14105153242e-05 -0.00136905919302 0)
              0.265                   (1.33670398571e-05 -0.00157894337219 0)
               0.27                   (1.55764958145e-05 -0.00181382207934 0)
              0.275                   (1.80537935743e-05 -0.00207513475034 0)
               0.28                   (2.08080266216e-05 -0.00236403764867 0)
              0.285                   (2.38414890689e-05 -0.00268133764463 0)
               0.29                   (2.7149872124e-05 -0.00302746404156 0)
              0.295                   (3.07229824542e-05 -0.00340243228011 0)
                0.3                   (3.45474856744e-05 -0.00380582119699 0)
              0.305                   (3.86096099587e-05 -0.00423675342852 0)
               0.31                   (4.28940281008e-05 -0.00469380607785 0)
              0.315                   (4.73798311802e-05 -0.00517484955588 0)
               0.32                   (5.20378078065e-05 -0.00567689469246 0)
              0.325                   (5.68295268352e-05 -0.00619600214114 0)
               0.33                   (6.17075120337e-05 -0.00672724752525 0)
              0.335                   (6.66175719087e-05 -0.00726470792964 0)
               0.34                   (7.15029461944e-05 -0.00780141211439 0)
              0.345                   (7.63044615412e-05 -0.00832924834857 0)
               0.35                   (8.09566132571e-05 -0.00883887591009 0)
              0.355                   (8.53851480672e-05 -0.00931970534258 0)
               0.36                   (8.9502872327e-05 -0.00976004733744 0)
              0.365                   (9.3209481548e-05 -0.0101474504906 0)
               0.37                   (9.64006699301e-05 -0.0104691495215 0)
              0.375                   (9.8977422361e-05 -0.0107124178488 0)
               0.38                   (0.000100847680901 -0.0108648916177 0)
              0.385                   (0.000101924944795 -0.0109148484178 0)
               0.39                   (0.000102131305589 -0.0108511153653 0)
              0.395                   (0.000101396666253 -0.0106633887895 0)
                0.4                   (9.96563833348e-05 -0.010342288867 0)
              0.405                   (9.68479011621e-05 -0.0098798349844 0)
               0.41                   (9.29089004767e-05 -0.00926911917344 0)
              0.415                   (8.7775011568e-05 -0.00850497751332 0)
               0.42                   (8.13761961044e-05 -0.00758385732059 0)
              0.425                   (7.36291059544e-05 -0.00650365363353 0)
               0.43                   (6.44276762522e-05 -0.00526343238813 0)
              0.435                   (5.36350826855e-05 -0.00386301952615 0)
               0.44                   (4.1087238604e-05 -0.00230259903051 0)
              0.445                   (2.65945047063e-05 -0.000582232235517 0)
               0.45                   (9.9246952028e-06 0.00129881403895 0)
              0.455                   (-9.0305193337e-06 0.00334823370118 0)
               0.46                   (-2.99764778778e-05 0.00558556373281 0)
              0.465                   (-5.40514138607e-05 0.0079976682105 0)
               0.47                   (-8.16977584235e-05 0.0105933494011 0)
              0.475                   (-0.000113443204695 0.0133848184435 0)
               0.48                   (-0.000149949093001 0.0163887533977 0)
              0.485                   (-0.000192068192222 0.0196274299335 0)
               0.49                   (-1.79769313486e+307 -1.79769313486e+307 -1.79769313486e+307)
              0.495                   (-1.79769313486e+307 -1.79769313486e+307 -1.79769313486e+307)
                0.5                   (-1.79769313486e+307 -1.79769313486e+307 -1.79769313486e+307)
              0.505                   (-1.79769313486e+307 -1.79769313486e+307 -1.79769313486e+307)
               0.51                   (-1.79769313486e+307 -1.79769313486e+307 -1.79769313486e+307)
              0.515                   (-1.79769313486e+307 -1.79769313486e+307 -1.79769313486e+307)
               0.52                   (-1.79769313486e+307 -1.79769313486e+307 -1.79769313486e+307)
              0.525                   (-1.79769313486e+307 -1.79769313486e+307 -1.79769313486e+307)
               0.53                   (-1.79769313486e+307 -1.79769313486e+307 -1.79769313486e+307)
              0.535                   (-1.79769313486e+307 -1.79769313486e+307 -1.79769313486e+307)
               0.54                   (-0.00028242702435 0.0836515284949 0)
              0.545                   (-0.000439190155062 0.0936185120206 0)
               0.55                   (-0.00064347100617 0.104549266147 0)
              0.555                   (-0.000905802263023 0.116496349038 0)
               0.56                   (-0.00123814953656 0.129503657002 0)
              0.565                   (-0.00172139563465 0.142932161005 0)
               0.57                   (-0.00223975925389 0.15805714364 0)
              0.575                   (-0.00287065229012 0.174283975184 0)
               0.58                   (-0.00366865912783 0.190412597341 0)
              0.585                   (-0.00456862432931 0.208636314558 0)
               0.59                   (-0.00561970554188 0.226325301415 0)
              0.595                   (-0.00683594673081 0.246287707969 0)
                0.6                   (-0.00822927432334 0.267066435844 0)
              0.605                   (-0.00975024126957 0.286515952111 0)
               0.61                   (-0.0115020785666 0.308408426612 0)
              0.615                   (-0.0133369924796 0.328300514271 0)
               0.62                   (-0.0154362785541 0.350729199947 0)
              0.625                   (-0.0175518486577 0.37044366197 0)
               0.63                   (-0.0199501890885 0.392762357 0)
              0.635                   (-0.0224800743797 0.414863339266 0)
               0.64                   (-0.0248800954633 0.433104312212 0)
              0.645                   (-0.0275658219237 0.454078762494 0)
               0.65                   (-0.0299972856161 0.470443162864 0)
              0.655                   (-0.0327051683817 0.489635812181 0)
               0.66                   (-0.0353870298232 0.507840352778 0)
              0.665                   (-0.0376136616381 0.520435177824 0)
               0.67                   (-0.0401058849916 0.536139589809 0)
              0.675                   (-0.0424638506539 0.550516437963 0)
               0.68                   (-0.0446633164723 0.563544466623 0)
              0.685                   (-0.0461708852611 0.570022499812 0)
               0.69                   (-0.0479511100521 0.580041768188 0)
              0.695                   (-0.0495080836136 0.588630433166 0)
                0.7                   (-0.0515134945063 0.600072873877 0)
              0.705                   (-0.0526193152608 0.605942538758 0)
               0.71                   (-0.0534803253734 0.610434011209 0)
              0.715                   (-0.0540902965889 0.613554175312 0)
               0.72                   (-0.0544424045666 0.61530878006 0)
              0.725                   (-0.0545306489515 0.615688482989 0)
               0.73                   (-0.054359744836 0.614753845634 0)
              0.735                   (-0.0539155629921 0.612374152792 0)
               0.74                   (-0.0532090079952 0.608640655053 0)
              0.745                   (-0.0522541887601 0.603594898412 0)
               0.75                   (-0.0510726702422 0.597308940626 0)
              0.755                   (-0.049019280545 0.585620776799 0)
               0.76                   (-0.0474903923918 0.577243491494 0)
              0.765                   (-0.0458303097451 0.567990031963 0)
               0.77                   (-0.0445668242462 0.563117007304 0)
              0.775                   (-0.042729897304 0.552496483253 0)
               0.78                   (-0.0408714179831 0.541544426048 0)
              0.785                   (-0.0390250038853 0.530441711163 0)
               0.79                   (-0.0372303645973 0.519457850242 0)
              0.795                   (-0.0358999116952 0.513254941635 0)
                0.8                   (-0.0343048222169 0.503165821314 0)
              0.805                   (-0.0328880720856 0.494083409564 0)
               0.81                   (-0.0316943997122 0.486368139456 0)
              0.815                   (-0.0307680655103 0.480404246825 0)
               0.82                   (-0.0301525582124 0.476571315946 0)
              0.825                   (-0.0298884370491 0.475244985626 0)
               0.83                   (-0.030017092271 0.47674347735 0)
              0.835                   (-0.0305909022913 0.481458182932 0)
               0.84                   (-0.0316575809116 0.48967817294 0)
              0.845                   (-0.0332743358636 0.501635933838 0)
               0.85                   (-0.0355161036601 0.517524399437 0)
              0.855                   (-0.0381321446836 0.533369748467 0)
               0.86                   (-0.0418464203568 0.557339653981 0)
              0.865                   (-0.0460439583864 0.580858605423 0)
               0.87                   (-0.052143302478 0.616436856595 0)
              0.875                   (-0.0582688981752 0.647066408375 0)
               0.88                   (-0.0653770811271 0.680292758087 0)
              0.885                   (-0.0734618466083 0.715488817377 0)
               0.89                   (-0.0832887024258 0.758492715134 0)
              0.895                   (-0.0939753560311 0.80001314719 0)
                0.9                   (-0.104632093171 0.837032491493 0)
              0.905                   (-0.115681740679 0.872508198515 0)
               0.91                   (-0.127805914868 0.91044575901 0)
              0.915                   (-0.140236607022 0.94941234648 0)
               0.92                   (-0.150477073213 0.975035553074 0)
              0.925                   (-0.159352899548 0.99453874806 0)
               0.93                   (-0.170117497609 1.02565212824 0)
              0.935                   (-0.177838618654 1.04544570339 0)
               0.94                   (-0.183420326508 1.05920280772 0)
              0.945                   (-0.186581417945 1.06647500216 0)
               0.95                   (-0.187236182007 1.06747791341 0)
              0.955                   (-0.185482320196 1.06266530733 0)
               0.96                   (-0.181176428382 1.05121688015 0)
              0.965                   (-0.174725521973 1.03394971114 0)
               0.97                   (-0.166320012915 1.01126840416 0)
              0.975                   (-0.157038788309 0.989080535973 0)
               0.98                   (-0.14588169315 0.956677609003 0)
              0.985                   (-0.135513744496 0.929983754069 0)
               0.99                   (-0.123331112201 0.893476098627 0)
              0.995                   (-0.112035098465 0.859096179546 0)
                  1                   (-0.0996495242336 0.813863409935 0)
              1.005                   (-0.0888443863658 0.77512365274 0)
               1.01                   (-0.0779114555548 0.731049764601 0)
              1.015                   (-0.0684961068287 0.691125762877 0)
               1.02                   (-0.0599121416346 0.651521806057 0)
              1.025                   (-0.0521881445626 0.612746560849 0)
               1.03                   (-0.0443628590489 0.566851549289 0)
              1.035                   (-0.0383903411189 0.531423862093 0)
               1.04                   (-0.0331149671134 0.497419254069 0)
              1.045                   (-0.0284518474326 0.464711442555 0)
               1.05                   (-0.0241054499841 0.429819566608 0)
              1.055                   (-0.0204355616113 0.399220910972 0)
               1.06                   (-0.0171168574096 0.368927013343 0)
              1.065                   (-0.0139734819514 0.335939517636 0)
               1.07                   (-0.0111893914683 0.304765148113 0)
              1.075                   (-0.00858994738085 0.271964698877 0)
               1.08                   (-0.00615517586993 0.235146025538 0)
              1.085                   (-0.00397845084931 0.197050728503 0)
               1.09                   (-0.0020893528455 0.154961401626 0)
              1.095                   (-0.000655523308722 0.108092026415 0)
                1.1                   (-1.79769313486e+307 -1.79769313486e+307 -1.79769313486e+307)
              1.105                   (0.000112447873532 -0.00132393937033 0)
               1.11                   (5.98499902996e-05 -0.0626544618602 0)
              1.115                   (-0.00156961447959 -0.128836107945 0)
               1.12                   (-0.00469089312845 -0.197928146831 0)
              1.125                   (-0.00961519082166 -0.269353267886 0)
               1.13                   (-0.0162262669508 -0.338500347152 0)
              1.135                   (-0.0246671439189 -0.408794334022 0)
               1.14                   (-0.0340677901268 -0.471122913508 0)
              1.145                   (-0.0445418239145 -0.53150816027 0)
               1.15                   (-0.0558506364017 -0.588661902787 0)
              1.155                   (-0.0655925422713 -0.631534771598 0)
               1.16                   (-0.0735634316239 -0.662666555889 0)
              1.165                   (-0.0801644437264 -0.688646856534 0)
               1.17                   (-0.0838696489458 -0.701469466569 0)
              1.175                   (-0.0840880457002 -0.700024176434 0)
               1.18                   (-0.0806777054346 -0.683597118818 0)
              1.185                   (-0.0749471398691 -0.659976641626 0)
               1.19                   (-0.064901637709 -0.613070563334 0)
              1.195                   (-0.0543781253194 -0.564387589076 0)
                1.2                   (-0.0404162521233 -0.486310686582 0)
              1.205                   (-0.027781464582 -0.402485987117 0)
               1.21                   (-0.0160855671959 -0.300714128347 0)
              1.215                   (-0.00696158457648 -0.182094941136 0)
               1.22                   (-0.00198955425055 -0.050291751159 0)
              1.225                   (-0.0038812451992 0.0971070875898 0)
               1.23                   (-0.00857888998257 0.249108173221 0)
              1.235                   (-0.0199737594349 0.394726639971 0)
               1.24                   (-0.0368278451057 0.528855088843 0)
              1.245                   (-0.0581574656592 0.653776943918 0)
               1.25                   (-0.0810558702981 0.758500599883 0)
              1.255                   (-0.103999117882 0.845686958364 0)
               1.26                   (-0.123379828336 0.906234625914 0)
              1.265                   (-0.140065510814 0.956113842418 0)
               1.27                   (-0.151202115074 0.988610747645 0)
              1.275                   (-0.155694585491 1.00062326705 0)
               1.28                   (-0.153343275618 0.992751851406 0)
              1.285                   (-0.144621316816 0.965719154744 0)
               1.29                   (-0.132052553935 0.93045051291 0)
              1.295                   (-0.114259144043 0.872721538182 0)
                1.3                   (-0.0954942309551 0.80963906019 0)
              1.305                   (-0.074197471431 0.719748538114 0)
               1.31                   (-0.0546573997053 0.624448879679 0)
              1.315                   (-0.0370623105927 0.516652074545 0)
               1.32                   (-0.0229770386019 0.39844498596 0)
              1.325                   (-0.0132687652217 0.275348423498 0)
               1.33                   (-0.00837432258736 0.151517262421 0)
              1.335                   (-1.79769313486e+307 -1.79769313486e+307 -1.79769313486e+307)
               1.34                   (-0.00529836858506 -0.0718331881941 0)
              1.345                   (-0.0087866412824 -0.158796101686 0)
               1.35                   (-0.0129910396038 -0.226995073308 0)
              1.355                   (-0.0170622352834 -0.279587999207 0)
               1.36                   (-0.0202904848131 -0.317680072845 0)
              1.365                   (-0.0214488799494 -0.333561248438 0)
               1.37                   (-0.0210756270398 -0.336689445649 0)
              1.375                   (-0.0190343053131 -0.324270880134 0)
               1.38                   (-0.016116624686 -0.302469070592 0)
              1.385                   (-0.0124658308548 -0.268792932375 0)
               1.39                   (-0.00854673040584 -0.222697797458 0)
              1.395                   (-0.00535870047345 -0.175746147555 0)
                1.4                   (-0.0027707326045 -0.121920792853 0)
              1.405                   (-0.00112753180981 -0.0670187097764 0)
               1.41                   (-0.000467454497892 -0.0138235326106 0)
              1.415                   (-1.79769313486e+307 -1.79769313486e+307 -1.79769313486e+307)
               1.42                   (-1.79769313486e+307 -1.79769313486e+307 -1.79769313486e+307)
              1.425                   (-0.00266620418376 0.108116670289 0)
               1.43                   (-0.00313451295819 0.128529253987 0)
              1.435                   (-0.00351012530405 0.13676093006 0)
               1.44                   (-0.00372549793935 0.132536812589 0)
              1.445                   (-0.00389798169679 0.116073613037 0)
               1.45                   (-0.00422682779559 0.088567353051 0)
              1.455                   (-1.79769313486e+307 -1.79769313486e+307 -1.79769313486e+307)
               1.46                   (-0.00279539731747 0.00756814474718 0)
              1.465                   (-0.00396487318256 -0.0398728841387 0)
               1.47                   (-0.0059041175238 -0.0879452307005 0)
              1.475                   (-0.00847706960276 -0.133904424355 0)
               1.48                   (-0.0114330879157 -0.174981154166 0)
              1.485                   (-0.0146606626786 -0.212317659266 0)
               1.49                   (-0.0173117766972 -0.23685227611 0)
              1.495                   (-0.019483602391 -0.254170635596 0)
                1.5                   (-0.0205180241731 -0.258775692966 0)
              1.505                   (-0.0201328129823 -0.249357568635 0)
               1.51                   (-0.0183328372981 -0.225257492498 0)
              1.515                   (-0.0157220040824 -0.190153639693 0)
               1.52                   (-0.0123801006326 -0.139235092786 0)
              1.525                   (-0.00918314686965 -0.0758902857347 0)
               1.53                   (-0.00691688539897 0.00581883464976 0)
              1.535                   (-0.0106841446271 0.101365650798 0)
               1.54                   (-0.011803469074 0.207889570985 0)
              1.545                   (-0.0170768525491 0.318225388899 0)
               1.55                   (-0.0264417406657 0.427219603225 0)
              1.555                   (-0.0395688142084 0.53271820361 0)
               1.56                   (-0.0558812814355 0.632182045687 0)
              1.565                   (-0.0733945998969 0.716895231445 0)
               1.57                   (-0.0915451928209 0.793409352943 0)
              1.575                   (-0.106917227073 0.84825468493 0)
               1.58                   (-0.11766763045 0.881107811009 0)
              1.585                   (-0.123279776457 0.898822159714 0)
               1.59                   (-0.121946775818 0.892983875055 0)
              1.595                   (-0.113497430621 0.862989641569 0)
                1.6                   (-0.0999440026017 0.817372665988 0)
              1.605                   (-0.0815692713345 0.749243338253 0)
               1.61                   (-0.0608568279523 0.657903372415 0)
              1.615                   (-0.039602636498 0.536490590374 0)
               1.62                   (-0.021911159401 0.394922723866 0)
              1.625                   (-0.0102735864496 0.22812952805 0)
               1.63                   (-1.79769313486e+307 -1.79769313486e+307 -1.79769313486e+307)
              1.635                   (-0.00878556031184 -0.14129026994 0)
               1.64                   (-0.022383061464 -0.312814555034 0)
              1.645                   (-0.042794172407 -0.464101656139 0)
               1.65                   (-0.0674618011694 -0.592799363858 0)
              1.655                   (-0.0925002038633 -0.696157801344 0)
               1.66                   (-0.111256977581 -0.758314059296 0)
              1.665                   (-0.124905412094 -0.802177722185 0)
               1.67                   (-0.127366477134 -0.806393179669 0)
              1.675                   (-0.119281719116 -0.783156678788 0)
               1.68                   (-0.10318849461 -0.733796968888 0)
              1.685                   (-0.0799688658564 -0.655267112537 0)
               1.69                   (-0.0543695478081 -0.549124704496 0)
              1.695                   (-0.0294119340512 -0.410591292489 0)
                1.7                   (-0.0108329195238 -0.246753807263 0)
              1.705                   (-0.00162832075243 -0.0642320637809 0)
               1.71                   (-0.00391853610862 0.132565561714 0)
              1.715                   (-0.0131137310039 0.315241108084 0)
               1.72                   (-0.0292033242347 0.467784759351 0)
              1.725                   (-0.0469741194311 0.581734953871 0)
               1.73                   (-0.0628463274024 0.664659859328 0)
              1.735                   (-0.0713453103852 0.700600939042 0)
               1.74                   (-0.0708760143396 0.696650504486 0)
              1.745                   (-0.0613166374747 0.653344752804 0)
               1.75                   (-0.0438299879186 0.561794118016 0)
              1.755                   (-0.0249923064687 0.437409790123 0)
               1.76                   (-0.00990575195297 0.26779094929 0)
              1.765                   (-1.79769313486e+307 -1.79769313486e+307 -1.79769313486e+307)
               1.77                   (-0.0097443043419 -0.162353714248 0)
              1.775                   (-0.0294004410819 -0.365388412311 0)
               1.78                   (-0.0586818276135 -0.54368191434 0)
              1.785                   (-0.0926683836711 -0.690469555347 0)
               1.79                   (-0.126408152344 -0.801667397019 0)
              1.795                   (-0.150194744016 -0.855730639652 0)
                1.8                   (-0.166129782119 -0.884050596715 0)
              1.805                   (-0.159630461843 -0.843944207502 0)
               1.81                   (-0.14241199736 -0.784645686001 0)
              1.815                   (-0.107387448707 -0.667251375275 0)
               1.82                   (-0.0675355563184 -0.51718137461 0)
              1.825                   (-0.0287623265005 -0.302168060161 0)
               1.83                   (-0.00731922180252 -0.0368091503663 0)
              1.835                   (-0.0130037990434 0.270773433769 0)
               1.84                   (-0.0411948048942 0.54625122327 0)
              1.845                   (-0.0843051947429 0.762432421999 0)
               1.85                   (-0.129521259347 0.922840527422 0)
              1.855                   (-0.163496364727 1.0133170873 0)
