# Forces            
# CofR              : (0.000000000000e+00 0.000000000000e+00 0.000000000000e+00)
# Time              forces(pressure viscous porous)	moments(pressure viscous porous)
0.005               	((-1.072563588445e+01 -1.849164056797e-03 0.000000000000e+00) (1.956540056446e+00 1.195435017361e-06 -4.787682342884e-19) (0.000000000000e+00 0.000000000000e+00 0.000000000000e+00)) ((0.000000000000e+00 0.000000000000e+00 6.431988220882e+01) (-2.864767511858e-18 2.575234724670e-18 -1.173925111465e+01) (0.000000000000e+00 0.000000000000e+00 0.000000000000e+00))
0.01                	((3.644631898161e+00 3.533246088009e-02 0.000000000000e+00) (1.302880154427e+00 1.161381673993e-05 -9.860181421591e-19) (0.000000000000e+00 0.000000000000e+00 0.000000000000e+00)) ((0.000000000000e+00 0.000000000000e+00 -2.165551122221e+01) (-5.888840699706e-18 6.179580229600e-18 -7.817231404979e+00) (0.000000000000e+00 0.000000000000e+00 0.000000000000e+00))
0.015               	((3.286804506349e-02 -5.492385392584e-03 1.390432006778e-28) (8.872425425877e-01 4.994372994638e-06 -1.052900976163e-19) (0.000000000000e+00 0.000000000000e+00 0.000000000000e+00)) ((8.306768619969e-28 -8.229513056410e-28 -2.674445147401e-01) (-6.343344717595e-19 1.009882135466e-18 -5.323450738434e+00) (0.000000000000e+00 0.000000000000e+00 0.000000000000e+00))
0.02                	((2.498444322886e-02 -2.742746754704e-03 4.091480905427e-28) (6.507984162581e-01 -8.003176402941e-06 -8.300510512176e-19) (0.000000000000e+00 0.000000000000e+00 0.000000000000e+00)) ((2.464154905693e-27 -2.318446644891e-27 -1.997421211882e-01) (-4.950479046482e-18 5.308136291966e-18 -3.904872071400e+00) (0.000000000000e+00 0.000000000000e+00 0.000000000000e+00))
0.025               	((2.133144826186e-02 -2.851186961135e-03 -3.453234839080e-28) (5.161415767200e-01 -8.631022927753e-06 2.988736931631e-20) (0.000000000000e+00 0.000000000000e+00 0.000000000000e+00)) ((-2.055624967975e-27 1.869605774487e-27 -1.798314397364e-01) (1.872970955625e-19 -2.150828280794e-19 -3.096941035520e+00) (0.000000000000e+00 0.000000000000e+00 0.000000000000e+00))
0.03                	((1.921349530322e-02 5.566794047811e-03 2.968379230665e-28) (4.339473812613e-01 1.653685695710e-05 -1.711144181117e-20) (0.000000000000e+00 0.000000000000e+00 0.000000000000e+00)) ((1.789053902732e-27 -1.654990726847e-27 -1.069226061350e-01) (-1.098556691458e-19 -4.049525820176e-19 -2.603610350383e+00) (0.000000000000e+00 0.000000000000e+00 0.000000000000e+00))
0.035               	((1.771604931644e-02 3.342155096551e-03 5.232744932595e-29) (3.782594930673e-01 1.615102604805e-06 -9.879513190080e-19) (0.000000000000e+00 0.000000000000e+00 0.000000000000e+00)) ((3.822783540985e-28 -1.139669106644e-27 -1.114859820811e-01) (-5.922196336952e-18 7.467468876933e-18 -2.269576689474e+00) (0.000000000000e+00 0.000000000000e+00 0.000000000000e+00))
0.04                	((1.658606219752e-02 -3.925302623123e-03 -1.381662427984e-27) (3.357822942151e-01 1.047699332919e-05 4.398244881661e-19) (0.000000000000e+00 0.000000000000e+00 0.000000000000e+00)) ((-8.463897699290e-27 1.191388310266e-26 -1.493735552071e-01) (2.619388843855e-18 -2.380806412197e-18 -2.014676919061e+00) (0.000000000000e+00 0.000000000000e+00 0.000000000000e+00))
0.045               	((1.571298334651e-02 -1.475744752487e-02 -9.785336906571e-27) (2.992351541191e-01 2.423602042563e-05 9.161181106549e-20) (0.000000000000e+00 0.000000000000e+00 0.000000000000e+00)) ((-5.856192595971e-26 6.365183766210e-26 -2.082857093626e-01) (5.601782157604e-19 9.006623947161e-20 -1.795317654875e+00) (0.000000000000e+00 0.000000000000e+00 0.000000000000e+00))
0.05                	((1.503130244074e-02 -2.924117825361e-02 4.941006003793e-27) (2.645549420929e-01 2.586562867656e-05 -1.370749582576e-18) (0.000000000000e+00 0.000000000000e+00 0.000000000000e+00)) ((2.904009652664e-26 -2.677891010139e-26 -2.935821613514e-01) (-8.211756513841e-18 1.139437525250e-17 -1.587222025939e+00) (0.000000000000e+00 0.000000000000e+00 0.000000000000e+00))
0.055               	((1.447130115627e-02 -3.769739011091e-02 -1.421713471675e-26) (2.294706689477e-01 3.135871977818e-05 4.546824984257e-19) (0.000000000000e+00 0.000000000000e+00 0.000000000000e+00)) ((-8.510871586598e-26 9.477013915243e-26 -3.348951642018e-01) (2.668881929879e-18 -2.357480366837e-18 -1.376682219455e+00) (0.000000000000e+00 0.000000000000e+00 0.000000000000e+00))
0.06                	((1.398037174854e-02 -4.422098637031e-02 -4.001209731045e-26) (1.936133827419e-01 8.633476698475e-06 1.424407469436e-18) (0.000000000000e+00 0.000000000000e+00 0.000000000000e+00)) ((-2.396938474623e-25 2.366869700363e-25 -3.672327190873e-01) (8.567511582675e-18 -1.004527464050e-17 -1.161657494076e+00) (0.000000000000e+00 0.000000000000e+00 0.000000000000e+00))
0.065               	((1.350023591510e-02 -5.246447873221e-02 1.672686418129e-25) (1.584585982847e-01 1.908557492616e-05 7.505907936196e-19) (0.000000000000e+00 0.000000000000e+00 0.000000000000e+00)) ((9.988056582574e-25 -1.048139727568e-24 -4.128519853823e-01) (4.534320706785e-18 -7.297034987330e-18 -9.506554933996e-01) (0.000000000000e+00 0.000000000000e+00 0.000000000000e+00))
0.07                	((1.297570889756e-02 -5.357860006887e-02 -3.634985683520e-26) (1.259289028145e-01 4.638797342149e-05 2.037593169862e-18) (0.000000000000e+00 0.000000000000e+00 0.000000000000e+00)) ((-2.195109399581e-25 2.788498087670e-25 -4.138439920220e-01) (1.223099649964e-17 -1.279701415515e-17 -7.553021015849e-01) (0.000000000000e+00 0.000000000000e+00 0.000000000000e+00))
0.075               	((1.245115425889e-02 -5.946018531816e-02 -1.035448526133e-25) (9.747453923851e-02 4.612151152996e-05 1.437180046435e-18) (0.000000000000e+00 0.000000000000e+00 0.000000000000e+00)) ((-6.165626806761e-25 6.232611222971e-25 -4.460226533692e-01) (8.647684833204e-18 -8.896212359252e-18 -5.845691081728e-01) (0.000000000000e+00 0.000000000000e+00 0.000000000000e+00))
0.08                	((1.193674947113e-02 -6.176960489285e-02 7.001958748259e-26) (7.300573366021e-02 3.471075649204e-05 -1.683907911922e-19) (0.000000000000e+00 0.000000000000e+00 0.000000000000e+00)) ((4.099843342316e-25 -4.656901910353e-25 -4.544646339081e-01) (-1.063728842388e-18 5.994993089747e-19 -4.378159729281e-01) (0.000000000000e+00 0.000000000000e+00 0.000000000000e+00))
0.085               	((1.139209640143e-02 -5.820748885897e-02 1.507743821560e-26) (5.197249415518e-02 1.623666194255e-05 6.660521799890e-19) (0.000000000000e+00 0.000000000000e+00 0.000000000000e+00)) ((9.114617797551e-26 -1.280650301107e-25 -4.254841819443e-01) (4.018454039575e-18 -4.234499782103e-18 -3.117238534515e-01) (0.000000000000e+00 0.000000000000e+00 0.000000000000e+00))
0.09                	((1.084571367850e-02 -6.569405682309e-02 -3.125150605482e-25) (3.344005538160e-02 -4.171758860727e-06 -9.573092398950e-19) (0.000000000000e+00 0.000000000000e+00 0.000000000000e+00)) ((-1.876462982383e-24 1.883832605292e-24 -4.699908143342e-01) (-5.802591642397e-18 6.611307468086e-18 -2.006532262950e-01) (0.000000000000e+00 0.000000000000e+00 0.000000000000e+00))
0.095               	((1.028446293538e-02 -7.002444395227e-02 2.203785024558e-25) (1.674092166951e-02 -2.592143732500e-05 1.243053252559e-18) (0.000000000000e+00 0.000000000000e+00 0.000000000000e+00)) ((1.292277870114e-24 -8.918060845967e-25 -4.978270700357e-01) (7.418946016035e-18 -9.359950309760e-18 -1.005924298089e-01) (0.000000000000e+00 0.000000000000e+00 0.000000000000e+00))
0.1                 	((9.693676798629e-03 -7.535104426877e-02 -3.997045431634e-25) (1.110872512346e-03 -2.577604666539e-05 1.480839974017e-18) (0.000000000000e+00 0.000000000000e+00 0.000000000000e+00)) ((-2.409107272595e-24 2.777949415517e-24 -5.299873070808e-01) (8.897738482268e-18 -1.084695976983e-17 -6.821628680481e-03) (0.000000000000e+00 0.000000000000e+00 0.000000000000e+00))
0.105               	((9.085937675029e-03 -8.595910100427e-02 -7.361306825811e-26) (-1.380197374818e-02 -3.249317142029e-05 -8.309886847249e-19) (0.000000000000e+00 0.000000000000e+00 0.000000000000e+00)) ((-4.277288334056e-25 3.881668200060e-25 -5.989693582239e-01) (-4.975949279211e-18 6.051260994566e-18 8.261300629943e-02) (0.000000000000e+00 0.000000000000e+00 0.000000000000e+00))
0.11                	((8.439453638270e-03 -9.489751880621e-02 1.837498193743e-24) (-2.836722326614e-02 -2.952350884465e-05 -1.346849957814e-19) (0.000000000000e+00 0.000000000000e+00 0.000000000000e+00)) ((1.112430451079e-23 -1.209956190257e-23 -6.597548444708e-01) (-8.189332884334e-19 1.051460833650e-18 1.700162917605e-01) (0.000000000000e+00 0.000000000000e+00 0.000000000000e+00))
0.115               	((7.745148432967e-03 -9.470560800180e-02 6.416100227198e-24) (-4.245920128144e-02 -3.516075537967e-05 -5.653397184624e-19) (0.000000000000e+00 0.000000000000e+00 0.000000000000e+00)) ((3.853455720660e-23 -4.048599904763e-23 -6.567899921841e-01) (-3.434416629819e-18 3.333922746151e-18 2.545390963706e-01) (0.000000000000e+00 0.000000000000e+00 0.000000000000e+00))
0.12                	((7.008345119159e-03 -1.024007756446e-01 1.008000876347e-24) (-5.601136128076e-02 -2.491632906863e-05 7.200911709744e-19) (0.000000000000e+00 0.000000000000e+00 0.000000000000e+00)) ((6.095251716497e-24 -4.636667354466e-24 -7.074315552392e-01) (4.313328330987e-18 -3.619225648998e-18 3.359178438535e-01) (0.000000000000e+00 0.000000000000e+00 0.000000000000e+00))
0.125               	((6.237096052896e-03 -1.047895684592e-01 -5.791095514689e-25) (-6.904169210396e-02 -1.821800820343e-05 6.550156307632e-19) (0.000000000000e+00 0.000000000000e+00 0.000000000000e+00)) ((-3.203993687674e-24 5.757836364067e-24 -7.228659927008e-01) (3.899868340275e-18 -4.782405648295e-18 4.141500726991e-01) (0.000000000000e+00 0.000000000000e+00 0.000000000000e+00))
0.13                	((5.434555296706e-03 -1.110312998120e-01 2.633901039687e-24) (-8.141733777925e-02 -1.398128449984e-05 2.872136131030e-19) (0.000000000000e+00 0.000000000000e+00 0.000000000000e+00)) ((1.611500370278e-23 -1.862604689573e-23 -7.648482314048e-01) (1.710993692505e-18 -2.878694220469e-18 4.884421224061e-01) (0.000000000000e+00 0.000000000000e+00 0.000000000000e+00))
0.135               	((4.593660640991e-03 -1.129555266100e-01 -4.447497660338e-24) (-9.316062683643e-02 -6.684804517536e-06 1.449798823083e-18) (0.000000000000e+00 0.000000000000e+00 0.000000000000e+00)) ((-2.648048224740e-23 2.749478687693e-23 -7.780199710295e-01) (8.698057901792e-18 -1.287956697229e-17 5.589637303223e-01) (0.000000000000e+00 0.000000000000e+00 0.000000000000e+00))
0.14                	((3.721570719146e-03 -1.131541293268e-01 -3.167950562439e-24) (-1.041495293295e-01 1.152473060288e-05 -1.086820012380e-18) (0.000000000000e+00 0.000000000000e+00 0.000000000000e+00)) ((-1.844868684114e-23 2.192110783864e-23 -7.828908172570e-01) (-6.493522380383e-18 8.996444169304e-18 6.250230878628e-01) (0.000000000000e+00 0.000000000000e+00 0.000000000000e+00))
0.145               	((2.823092072870e-03 -1.140407599909e-01 5.869854496016e-24) (-1.143214826324e-01 2.624877008252e-05 -2.877190517271e-19) (0.000000000000e+00 0.000000000000e+00 0.000000000000e+00)) ((3.556859581449e-23 -3.828203197367e-23 -7.917116432285e-01) (-1.698501616913e-18 -9.499615832612e-20 6.861621922137e-01) (0.000000000000e+00 0.000000000000e+00 0.000000000000e+00))
0.15                	((1.897750330851e-03 -1.114422483694e-01 -6.203616606927e-24) (-1.236574716975e-01 4.210955842785e-05 5.890721537485e-19) (0.000000000000e+00 0.000000000000e+00 0.000000000000e+00)) ((-3.728158244573e-23 4.138527236185e-23 -7.787498439732e-01) (3.511707557849e-18 -4.281641810995e-18 7.423045752525e-01) (0.000000000000e+00 0.000000000000e+00 0.000000000000e+00))
0.155               	((9.378197146341e-04 -1.105080878264e-01 1.762968683052e-23) (-1.319291181067e-01 5.467509909933e-05 9.481734098279e-19) (0.000000000000e+00 0.000000000000e+00 0.000000000000e+00)) ((1.058201848683e-22 -1.125603099112e-22 -7.765854742191e-01) (5.663371880283e-18 -5.734590781032e-18 7.920339337761e-01) (0.000000000000e+00 0.000000000000e+00 0.000000000000e+00))
0.16                	((-4.893717453511e-05 -1.105982229664e-01 -5.210867157464e-23) (-1.389349573727e-01 6.601823109472e-05 1.800579432731e-18) (0.000000000000e+00 0.000000000000e+00 0.000000000000e+00)) ((-3.129367334487e-22 3.498059643049e-22 -7.832268531939e-01) (1.075713586843e-17 -1.179223395673e-17 8.341578733377e-01) (0.000000000000e+00 0.000000000000e+00 0.000000000000e+00))
0.165               	((-1.068661811653e-03 -1.103826287267e-01 3.719432241460e-23) (-1.445628814282e-01 5.895684457260e-05 -2.795245871446e-19) (0.000000000000e+00 0.000000000000e+00 0.000000000000e+00)) ((2.231234388983e-22 -2.332403801487e-22 -7.879355067733e-01) (-1.693206710726e-18 2.994929157645e-18 8.678866171103e-01) (0.000000000000e+00 0.000000000000e+00 0.000000000000e+00))
0.17                	((-2.124556145340e-03 -1.087606924368e-01 -7.104236950339e-24) (-1.488258290267e-01 3.606815045452e-05 8.991761881768e-19) (0.000000000000e+00 0.000000000000e+00 0.000000000000e+00)) ((-4.243679047743e-23 3.695416070786e-23 -7.865529429825e-01) (5.385364759517e-18 -7.310295833534e-18 8.933031906521e-01) (0.000000000000e+00 0.000000000000e+00 0.000000000000e+00))
0.175               	((-3.205968395362e-03 -1.107520107489e-01 -1.332759138583e-24) (-1.516456829155e-01 -4.288969318479e-07 1.684127808528e-18) (0.000000000000e+00 0.000000000000e+00 0.000000000000e+00)) ((-7.913124077079e-24 1.212854914322e-23 -8.092629874336e-01) (1.012106301405e-17 -1.294094924731e-17 9.099331148162e-01) (0.000000000000e+00 0.000000000000e+00 0.000000000000e+00))
0.18                	((-4.318522549550e-03 -1.183577074225e-01 -7.058752322793e-23) (-1.533672013505e-01 6.699595312655e-06 -4.524731900725e-19) (0.000000000000e+00 0.000000000000e+00 0.000000000000e+00)) ((-4.258432722583e-22 4.784100762958e-22 -8.705177544389e-01) (-2.662050732391e-18 6.207022465493e-19 9.203484191631e-01) (0.000000000000e+00 0.000000000000e+00 0.000000000000e+00))
0.185               	((-5.484354296462e-03 -1.228199623176e-01 2.972091840481e-23) (-1.543458205797e-01 -5.681315733778e-06 -1.592940050968e-18) (0.000000000000e+00 0.000000000000e+00 0.000000000000e+00)) ((1.772268268017e-22 -2.055270780135e-22 -9.108390264862e-01) (-9.539890800921e-18 1.095664280152e-17 9.261273766584e-01) (0.000000000000e+00 0.000000000000e+00 0.000000000000e+00))
0.19                	((-6.699154557823e-03 -1.232618538647e-01 -6.186320043231e-23) (-1.548720287475e-01 -9.402757875813e-06 -7.945872230501e-19) (0.000000000000e+00 0.000000000000e+00 0.000000000000e+00)) ((-3.687460926446e-22 4.396763175450e-22 -9.235012217880e-01) (-4.755925994025e-18 6.377282747186e-18 9.292367880558e-01) (0.000000000000e+00 0.000000000000e+00 0.000000000000e+00))
0.195               	((-7.985258745148e-03 -1.187568482393e-01 6.945108420083e-23) (-1.551698998797e-01 -9.365801354283e-06 -6.476883896521e-19) (0.000000000000e+00 0.000000000000e+00 0.000000000000e+00)) ((4.141363989651e-22 -4.424011058323e-22 -9.034558577535e-01) (-3.938748481984e-18 1.930127794039e-18 9.309910955426e-01) (0.000000000000e+00 0.000000000000e+00 0.000000000000e+00))
0.2                 	((-9.341411234668e-03 -1.107190910267e-01 2.633534133233e-23) (-1.555680690776e-01 6.459462847989e-06 1.707913394451e-18) (0.000000000000e+00 0.000000000000e+00 0.000000000000e+00)) ((1.567704364946e-22 -1.866383453886e-22 -8.560139563226e-01) (1.024411452255e-17 -1.233833628358e-17 9.334721123245e-01) (0.000000000000e+00 0.000000000000e+00 0.000000000000e+00))
0.205               	((-1.076745180918e-02 -1.059081098805e-01 -1.598228925411e-23) (-1.562844899435e-01 2.301643679709e-05 -2.595175598774e-19) (0.000000000000e+00 0.000000000000e+00 0.000000000000e+00)) ((-9.649299939343e-23 1.640151947119e-22 -8.293736620544e-01) (-1.529127787141e-18 2.461700607523e-18 9.378615962376e-01) (0.000000000000e+00 0.000000000000e+00 0.000000000000e+00))
0.21                	((-1.226752917503e-02 -1.042861744676e-01 3.188592859330e-23) (-1.575991704007e-01 3.394230937597e-05 -1.195749682977e-18) (0.000000000000e+00 0.000000000000e+00 0.000000000000e+00)) ((1.922691219971e-22 -2.584385906462e-22 -8.218748403566e-01) (-7.175138504791e-18 1.124167849319e-17 9.458066611146e-01) (0.000000000000e+00 0.000000000000e+00 0.000000000000e+00))
0.215               	((-1.381941771925e-02 -1.032039589289e-01 -1.831934528789e-22) (-1.597705123597e-01 4.236508244853e-05 5.511931782030e-19) (0.000000000000e+00 0.000000000000e+00 0.000000000000e+00)) ((-1.096802942963e-21 1.316636085573e-21 -8.164374169026e-01) (3.322112717250e-18 -3.035245028461e-18 9.588765130669e-01) (0.000000000000e+00 0.000000000000e+00 0.000000000000e+00))
0.22                	((-1.540902247162e-02 -1.071361885782e-01 -1.404193396964e-24) (-1.631438035375e-01 4.741148913286e-05 1.744665846194e-18) (0.000000000000e+00 0.000000000000e+00 0.000000000000e+00)) ((-1.227935866973e-23 -3.511301165183e-23 -8.442157335689e-01) (1.045572506337e-17 -1.414742897037e-17 9.791255152110e-01) (0.000000000000e+00 0.000000000000e+00 0.000000000000e+00))
0.225               	((-1.701720945117e-02 -1.113893666091e-01 9.647133398852e-23) (-1.678754766944e-01 5.503938330725e-05 -1.416860862302e-18) (0.000000000000e+00 0.000000000000e+00 0.000000000000e+00)) ((5.728523653685e-22 -6.477338235795e-22 -8.705590881777e-01) (-8.497126210257e-18 1.152992024877e-17 1.007559712103e+00) (0.000000000000e+00 0.000000000000e+00 0.000000000000e+00))
0.23                	((-1.861787391061e-02 -1.153149474734e-01 8.754384233317e-23) (-1.739298152337e-01 4.378560061714e-05 -7.244007848226e-19) (0.000000000000e+00 0.000000000000e+00 0.000000000000e+00)) ((5.238027942203e-22 -6.494363804264e-22 -8.927296505969e-01) (-4.344502291698e-18 8.002563178383e-18 1.043772247608e+00) (0.000000000000e+00 0.000000000000e+00 0.000000000000e+00))
0.235               	((-2.016446965873e-02 -1.163754123900e-01 2.405002576829e-22) (-1.811957748830e-01 3.879266129656e-05 -1.637477238439e-18) (0.000000000000e+00 0.000000000000e+00 0.000000000000e+00)) ((1.446304136437e-21 -1.744760365006e-21 -8.921190810516e-01) (-9.804538865422e-18 1.245966135927e-17 1.087312281943e+00) (0.000000000000e+00 0.000000000000e+00 0.000000000000e+00))
0.24                	((-2.159265125160e-02 -1.126796791006e-01 -2.068878530026e-22) (-1.895158653102e-01 2.432616725594e-05 6.243324776188e-19) (0.000000000000e+00 0.000000000000e+00 0.000000000000e+00)) ((-1.249230583983e-21 1.375296297628e-21 -8.582832364142e-01) (3.779748888617e-18 -3.334443907689e-18 1.137084792363e+00) (0.000000000000e+00 0.000000000000e+00 0.000000000000e+00))
0.245               	((-2.285712017364e-02 -1.063238664899e-01 -1.465307538595e-22) (-1.984278581374e-01 1.462285204112e-05 9.231653311829e-22) (0.000000000000e+00 0.000000000000e+00 0.000000000000e+00)) ((-8.860746708085e-22 1.000156994227e-21 -8.045009130631e-01) (1.433649307325e-20 1.129102627688e-18 1.190428092455e+00) (0.000000000000e+00 0.000000000000e+00 0.000000000000e+00))
0.25                	((-2.393530520627e-02 -9.928298877640e-02 -1.741680704817e-22) (-2.076364404378e-01 1.248858211962e-05 -1.956259221525e-18) (0.000000000000e+00 0.000000000000e+00 0.000000000000e+00)) ((-1.040054918318e-21 1.276975191265e-21 -7.455152031489e-01) (-1.172903547900e-17 1.530644146409e-17 1.245604079600e+00) (0.000000000000e+00 0.000000000000e+00 0.000000000000e+00))
0.255               	((-2.471325106351e-02 -9.116458433920e-02 7.697506963900e-23) (-2.167327259661e-01 -1.614256548379e-06 6.254112112673e-19) (0.000000000000e+00 0.000000000000e+00 0.000000000000e+00)) ((4.748086835991e-22 -3.653579094067e-22 -6.762791532645e-01) (3.770600772416e-18 -5.013947608982e-18 1.299983257069e+00) (0.000000000000e+00 0.000000000000e+00 0.000000000000e+00))
0.26                	((-2.511446236305e-02 -7.991180522207e-02 -9.190232258047e-23) (-2.253136020306e-01 -2.745401889965e-05 8.464508839173e-19) (0.000000000000e+00 0.000000000000e+00 0.000000000000e+00)) ((-5.835054662444e-22 5.118148406421e-22 -5.861238843558e-01) (5.049509611887e-18 -7.610941744701e-18 1.351155643462e+00) (0.000000000000e+00 0.000000000000e+00 0.000000000000e+00))
0.265               	((-2.505355384156e-02 -6.939061692447e-02 -4.935299728180e-22) (-2.330853807443e-01 -7.723082751744e-05 -4.784089227924e-19) (0.000000000000e+00 0.000000000000e+00 0.000000000000e+00)) ((-2.963289837896e-21 4.337166904630e-21 -5.015457071941e-01) (-2.844636480336e-18 3.632017402222e-18 1.397244050023e+00) (0.000000000000e+00 0.000000000000e+00 0.000000000000e+00))
0.27                	((-2.446233589131e-02 -5.766124267927e-02 1.087357723763e-22) (-2.396806111314e-01 -1.799123601079e-04 3.894760687979e-20) (0.000000000000e+00 0.000000000000e+00 0.000000000000e+00)) ((6.191317150920e-22 -9.580978057260e-22 -4.104413425953e-01) (2.307079072887e-19 -5.497593932200e-19 1.435783349195e+00) (0.000000000000e+00 0.000000000000e+00 0.000000000000e+00))
0.275               	((-2.322538748266e-02 -4.553335980970e-02 -3.387722387879e-23) (-2.446543271880e-01 -3.186838048185e-04 6.890068124502e-19) (0.000000000000e+00 0.000000000000e+00 0.000000000000e+00)) ((-1.907995542822e-22 8.971609456393e-23 -3.171707023896e-01) (4.150116411456e-18 -5.718591508707e-18 1.464240628407e+00) (0.000000000000e+00 0.000000000000e+00 0.000000000000e+00))
0.28                	((-2.152340585512e-02 -2.599305082410e-02 -9.259278931092e-22) (-2.479839126189e-01 -5.905426822500e-04 6.055095956065e-19) (0.000000000000e+00 0.000000000000e+00 0.000000000000e+00)) ((-5.530863628940e-21 7.035714881978e-21 -1.780385397001e-01) (3.640314980456e-18 -4.234258623873e-18 1.481558988045e+00) (0.000000000000e+00 0.000000000000e+00 0.000000000000e+00))
0.285               	((-1.932610213186e-02 2.769777641278e-03 1.777092462656e-21) (-2.494350160718e-01 -7.995237187994e-04 -2.260032434111e-19) (0.000000000000e+00 0.000000000000e+00 0.000000000000e+00)) ((1.065217060720e-20 -1.382197369565e-20 3.057810729059e-02) (-1.367648195933e-18 2.318968903921e-18 1.488210527082e+00) (0.000000000000e+00 0.000000000000e+00 0.000000000000e+00))
0.29                	((-1.656490011531e-02 3.455790215196e-02 -2.949677402613e-22) (-2.490494241859e-01 -9.362904778521e-04 4.161354941375e-20) (0.000000000000e+00 0.000000000000e+00 0.000000000000e+00)) ((-1.736666474175e-21 2.130961130878e-21 2.565556961514e-01) (2.756431399764e-19 2.633948401903e-19 1.484529209507e+00) (0.000000000000e+00 0.000000000000e+00 0.000000000000e+00))
0.295               	((-1.341078161074e-02 6.849415382433e-02 -1.916276308383e-21) (-2.468466170498e-01 -1.088638050298e-03 2.923041579923e-19) (0.000000000000e+00 0.000000000000e+00 0.000000000000e+00)) ((-1.146382228756e-20 1.564343261938e-20 4.958067018412e-01) (1.738133135164e-18 -2.136572731608e-18 1.469800542195e+00) (0.000000000000e+00 0.000000000000e+00 0.000000000000e+00))
0.3                 	((-1.000941128847e-02 1.032735178309e-01 -1.067988050951e-21) (-2.428439738845e-01 -1.259257793825e-03 -6.258118104693e-19) (0.000000000000e+00 0.000000000000e+00 0.000000000000e+00)) ((-6.420828213588e-21 9.303481196557e-21 7.432723872707e-01) (-3.728139032031e-18 4.500858497867e-18 1.444107518811e+00) (0.000000000000e+00 0.000000000000e+00 0.000000000000e+00))
0.305               	((-6.623731361310e-03 1.469382694231e-01 1.243117123141e-21) (-2.372708339275e-01 -1.406764572298e-03 -9.351649209487e-20) (0.000000000000e+00 0.000000000000e+00 0.000000000000e+00)) ((7.499173358254e-21 -9.373211451062e-21 1.053423016172e+00) (-5.576710259889e-19 1.269806735103e-18 1.409174479534e+00) (0.000000000000e+00 0.000000000000e+00 0.000000000000e+00))
0.31                	((-3.463157476549e-03 1.917280432569e-01 2.024592450764e-21) (-2.302345402684e-01 -1.519240416200e-03 -6.423771384229e-19) (0.000000000000e+00 0.000000000000e+00 0.000000000000e+00)) ((1.207311279760e-20 -1.624183775111e-20 1.372864405643e+00) (-3.844975405976e-18 5.043528255456e-18 1.365772847748e+00) (0.000000000000e+00 0.000000000000e+00 0.000000000000e+00))
0.315               	((-7.124555750578e-04 2.337970221827e-01 9.938138752420e-22) (-2.218988942818e-01 -1.553624497869e-03 -6.833375584748e-19) (0.000000000000e+00 0.000000000000e+00 0.000000000000e+00)) ((5.942088731316e-21 -8.506196520417e-21 1.671359657709e+00) (-4.106745032122e-18 5.625380070134e-18 1.315328930401e+00) (0.000000000000e+00 0.000000000000e+00 0.000000000000e+00))
0.32                	((1.530647372137e-03 2.807659161489e-01 1.910223835423e-21) (-2.125858989522e-01 -1.466868576628e-03 1.440099431834e-18) (0.000000000000e+00 0.000000000000e+00 0.000000000000e+00)) ((1.152485819723e-20 -1.327973428267e-20 2.002390535046e+00) (8.647538763263e-18 -1.274537513850e-17 1.260170354929e+00) (0.000000000000e+00 0.000000000000e+00 0.000000000000e+00))
0.325               	((3.149322965727e-03 3.377782052480e-01 -1.024987179688e-21) (-2.031112827757e-01 -1.274872203658e-03 5.463058237460e-19) (0.000000000000e+00 0.000000000000e+00 0.000000000000e+00)) ((-5.888277533448e-21 9.486377269177e-21 2.413997280176e+00) (3.301988654575e-18 -4.719551852679e-18 1.205056231868e+00) (0.000000000000e+00 0.000000000000e+00 0.000000000000e+00))
0.33                	((4.120423077137e-03 4.040223824741e-01 2.122010091344e-21) (-1.941617166578e-01 -1.003668451740e-03 -4.360917577849e-19) (0.000000000000e+00 0.000000000000e+00 0.000000000000e+00)) ((1.281426443589e-20 -1.775643182226e-20 2.903956681937e+00) (-2.600068123696e-18 5.009692384615e-18 1.153840664679e+00) (0.000000000000e+00 0.000000000000e+00 0.000000000000e+00))
0.335               	((4.340811856977e-03 4.643926029763e-01 -1.210656972718e-21) (-1.861984211981e-01 -7.126878206999e-04 -6.651600254156e-19) (0.000000000000e+00 0.000000000000e+00 0.000000000000e+00)) ((-7.293734668700e-21 8.515287603977e-21 3.347600629721e+00) (-4.012398847606e-18 5.564480622727e-18 1.108734074942e+00) (0.000000000000e+00 0.000000000000e+00 0.000000000000e+00))
0.34                	((3.830043912348e-03 5.179462818422e-01 -2.706620732792e-23) (-1.797314684905e-01 -4.337771996643e-04 4.200927287371e-19) (0.000000000000e+00 0.000000000000e+00 0.000000000000e+00)) ((-1.164151600443e-22 6.195774115211e-24 3.748790806063e+00) (2.447618651074e-18 -3.618808001017e-18 1.072467299243e+00) (0.000000000000e+00 0.000000000000e+00 0.000000000000e+00))
0.345               	((2.656047153571e-03 5.638647384851e-01 1.583746453891e-21) (-1.752913255503e-01 -2.122425170828e-04 3.111335815221e-18) (0.000000000000e+00 0.000000000000e+00 0.000000000000e+00)) ((9.460228621734e-21 -1.369671183663e-20 4.092233315287e+00) (1.856196677804e-17 -2.946025841008e-17 1.047809974082e+00) (0.000000000000e+00 0.000000000000e+00 0.000000000000e+00))
0.35                	((9.992365316451e-04 5.757741923578e-01 -2.858262907601e-21) (-1.729925081574e-01 -9.148106074196e-05 -4.336804684164e-19) (0.000000000000e+00 0.000000000000e+00 0.000000000000e+00)) ((-1.703084314447e-20 2.473371202293e-20 4.172453874632e+00) (-2.613576764259e-18 3.559590273627e-18 1.035119521717e+00) (0.000000000000e+00 0.000000000000e+00 0.000000000000e+00))
0.355               	((-8.376472668114e-04 5.949635350460e-01 -3.584030433287e-21) (-1.725118818980e-01 1.733894664429e-05 3.851950541341e-18) (0.000000000000e+00 0.000000000000e+00 0.000000000000e+00)) ((-2.161851629764e-20 2.675191105050e-20 4.303543099833e+00) (2.301013982216e-17 -3.541008807955e-17 1.033163129407e+00) (0.000000000000e+00 0.000000000000e+00 0.000000000000e+00))
0.36                	((-2.387739338699e-03 6.114465458966e-01 -9.921405167343e-22) (-1.731315364630e-01 1.282067210797e-04 -8.694865998321e-19) (0.000000000000e+00 0.000000000000e+00 0.000000000000e+00)) ((-5.964905118541e-21 1.375851013586e-20 4.414069546168e+00) (-5.343303710285e-18 7.720771992385e-18 1.037820500146e+00) (0.000000000000e+00 0.000000000000e+00 0.000000000000e+00))
0.365               	((-3.064071129094e-03 6.320869324870e-01 8.757629164983e-21) (-1.737404687456e-01 2.414267020290e-04 -1.358160183056e-18) (0.000000000000e+00 0.000000000000e+00 0.000000000000e+00)) ((5.260045679546e-20 -7.102560275812e-20 4.546871309648e+00) (-8.156540913276e-18 1.261117723392e-17 1.042469115653e+00) (0.000000000000e+00 0.000000000000e+00 0.000000000000e+00))
0.37                	((-2.483448914439e-03 6.493445136955e-01 1.673355267566e-21) (-1.730483855410e-01 3.584281303990e-04 1.321136035976e-18) (0.000000000000e+00 0.000000000000e+00 0.000000000000e+00)) ((1.000144589410e-20 -1.470783297724e-20 4.646253998777e+00) (7.917685407323e-18 -1.355776220359e-17 1.039386819050e+00) (0.000000000000e+00 0.000000000000e+00 0.000000000000e+00))
0.375               	((-4.952086025423e-04 6.617202859611e-01 -5.151425930098e-21) (-1.697566039255e-01 4.724047973575e-04 -2.915648316793e-19) (0.000000000000e+00 0.000000000000e+00 0.000000000000e+00)) ((-3.083028896786e-20 4.373001252453e-20 4.704276919975e+00) (-1.702919993325e-18 2.577360729708e-18 1.020745453996e+00) (0.000000000000e+00 0.000000000000e+00 0.000000000000e+00))
0.38                	((2.955804860273e-03 6.814666960717e-01 -6.672137095450e-21) (-1.628283223719e-01 5.817503888553e-04 -2.892236862866e-18) (0.000000000000e+00 0.000000000000e+00 0.000000000000e+00)) ((-4.007520906353e-20 5.494799308016e-20 4.807023913504e+00) (-1.738485528807e-17 2.594693257663e-17 9.803300302088e-01) (0.000000000000e+00 0.000000000000e+00 0.000000000000e+00))
0.385               	((7.809629226441e-03 7.078063757885e-01 2.113618545929e-21) (-1.516891912792e-01 6.810691473224e-04 3.245945910752e-18) (0.000000000000e+00 0.000000000000e+00 0.000000000000e+00)) ((1.266690018974e-20 -2.242667825362e-20 4.946908375156e+00) (1.946971785855e-17 -2.969608687147e-17 9.146310564175e-01) (0.000000000000e+00 0.000000000000e+00 0.000000000000e+00))