# Residuals         
# Time              	p                   	Ux                  	Uy                  
0.005               	1.000000000000e+00	1.000000000000e+00	9.999999953791e-01
0.01                	1.197149240383e-02	9.469184347392e-01	3.890439907225e-01
0.015               	1.141277068509e-02	9.507433448199e-01	1.312030050465e-01
0.02                	7.093941196008e-02	5.350831184552e-02	6.053729819158e-02
0.025               	4.217260956729e-02	2.930969751650e-02	4.676637017677e-02
0.03                	3.453798379361e-02	2.189577078250e-02	3.977531148774e-02
0.035               	3.073188703976e-02	1.707074968997e-02	3.502212075797e-02
0.04                	2.730454306587e-02	1.407763032587e-02	3.153306456449e-02
0.045               	2.391337718586e-02	1.208025641078e-02	2.892110419339e-02
0.05                	2.092743906993e-02	1.101238891908e-02	2.714107684450e-02
0.055               	1.864865491945e-02	1.038714978529e-02	2.640004289402e-02
0.06                	1.685792124847e-02	1.009026436976e-02	2.652905646446e-02
0.065               	1.630059358553e-02	1.002349287388e-02	2.707421628966e-02
0.07                	1.505105067451e-02	9.962726127873e-03	2.741034892628e-02
0.075               	1.496041678124e-02	9.699968719256e-03	2.732852918708e-02
0.08                	1.514627944224e-02	9.342655261546e-03	2.697026860749e-02
0.085               	1.534615602341e-02	8.989515641703e-03	2.653865249613e-02
0.09                	1.502968019116e-02	8.575510936716e-03	2.584642186205e-02
0.095               	1.509845229515e-02	8.247798300549e-03	2.506581747609e-02
0.1                 	1.472624305327e-02	7.972838251975e-03	2.425659280230e-02
0.105               	1.464745395331e-02	7.701848799871e-03	2.341783859152e-02
0.11                	1.414553293310e-02	7.458425504844e-03	2.268504787888e-02
0.115               	1.371328715930e-02	7.227017836575e-03	2.199162863032e-02
0.12                	1.312133771504e-02	6.993487359691e-03	2.131753613531e-02
0.125               	1.289765661566e-02	6.767885442013e-03	2.075982416551e-02
0.13                	1.251055828715e-02	6.555464721576e-03	2.032780005436e-02
0.135               	1.245150474565e-02	6.356527205993e-03	2.008135887574e-02
0.14                	1.229897465629e-02	6.165952363821e-03	1.997146557151e-02
0.145               	1.222116913345e-02	5.989413496152e-03	1.995272646370e-02
0.15                	1.229496474933e-02	5.830944454711e-03	1.994646462202e-02
0.155               	1.257133662979e-02	5.695449798641e-03	1.995769041969e-02
0.16                	1.300259666628e-02	5.577735931714e-03	1.998952329886e-02
0.165               	1.333176021943e-02	5.480585792236e-03	2.006037353827e-02
0.17                	1.353774677437e-02	5.395860810871e-03	2.016763079673e-02
0.175               	1.374192888067e-02	5.316514376912e-03	2.037932453219e-02
0.18                	1.394942813925e-02	5.256157860195e-03	2.056052404088e-02
0.185               	1.394061013259e-02	5.209787786227e-03	2.082344345566e-02
0.19                	1.422699593895e-02	5.173538871651e-03	2.118114679888e-02
0.195               	1.453737775511e-02	5.160050380715e-03	2.165044798071e-02
0.2                 	1.490728545356e-02	5.160942517912e-03	2.216509269639e-02
0.205               	1.548208828102e-02	5.161396359310e-03	2.268000693573e-02
0.21                	1.598263827939e-02	5.163787165579e-03	2.318166393170e-02
0.215               	1.660531866753e-02	5.164111776604e-03	2.367346601975e-02
0.22                	1.722498120067e-02	5.171393969301e-03	2.415927107199e-02
0.225               	1.778453247006e-02	5.181377941517e-03	2.456485760621e-02
0.23                	1.847311161045e-02	5.180100549718e-03	2.492329345318e-02
0.235               	1.898582681050e-02	5.176607025257e-03	2.525084185147e-02
0.24                	1.936049177587e-02	5.159463306454e-03	2.556156098617e-02
0.245               	1.963422908899e-02	5.130228687697e-03	2.580085158878e-02
0.25                	1.952152366745e-02	5.090971278603e-03	2.595107404822e-02
0.255               	1.956418941203e-02	5.031361434636e-03	2.602238023704e-02
0.26                	1.960569948494e-02	4.953059872696e-03	2.604334592684e-02
0.265               	1.951380695027e-02	4.861123773914e-03	2.597896073301e-02
0.27                	1.951708025058e-02	4.773135312525e-03	2.581169108063e-02
0.275               	1.935132732537e-02	4.673497668983e-03	2.558985621616e-02
0.28                	1.929763632625e-02	4.571331322887e-03	2.523523170438e-02
0.285               	1.918347583682e-02	4.466504275924e-03	2.477535294181e-02
0.29                	1.910174621324e-02	4.356141966883e-03	2.420998835448e-02
0.295               	1.896639544337e-02	4.247018462974e-03	2.355021112436e-02
0.3                 	1.863666741809e-02	4.141729466206e-03	2.282110085207e-02
0.305               	1.821683978101e-02	4.038320468289e-03	2.206986947451e-02
0.31                	1.775881659367e-02	3.939244477616e-03	2.134908780768e-02
0.315               	1.718675393713e-02	3.861780617337e-03	2.073075360676e-02
0.32                	1.679519313408e-02	3.803208505751e-03	2.016784730065e-02
0.325               	1.654770897564e-02	3.752765472723e-03	1.969169859805e-02
0.33                	1.645310575967e-02	3.725428849862e-03	1.936910798947e-02
0.335               	1.663882328193e-02	3.733694617544e-03	1.915037745794e-02
0.34                	1.698540152592e-02	3.789820316066e-03	1.914934921294e-02
0.345               	1.759050754087e-02	3.883773094865e-03	1.942616960586e-02
0.35                	1.828095052072e-02	4.007565753397e-03	1.995357612282e-02
0.355               	1.894505495569e-02	4.139363714431e-03	2.051764750041e-02
0.36                	1.913482585286e-02	4.252969748628e-03	2.088125288389e-02
0.365               	1.890299148901e-02	4.349219558401e-03	2.124634608119e-02
0.37                	1.806423506307e-02	4.438375722848e-03	2.173654428653e-02
0.375               	1.686747481430e-02	4.545254316089e-03	2.248581863584e-02
0.38                	1.625486737592e-02	4.690123533973e-03	2.358165514340e-02
0.385               	1.661973850230e-02	4.872316863917e-03	2.493702937683e-02
0.39                	1.769135757850e-02	5.077088730442e-03	2.642067562658e-02
0.395               	1.912364711579e-02	5.278397746838e-03	2.799567203493e-02
0.4                 	2.079784249335e-02	5.459108338672e-03	2.956676255887e-02
0.405               	2.247453926379e-02	5.616865882211e-03	3.103039226302e-02
0.41                	2.390308955985e-02	5.742434656948e-03	3.232056472239e-02
0.415               	2.501232990306e-02	5.827203644257e-03	3.338584790430e-02
0.42                	2.565350277647e-02	5.873447007788e-03	3.423206149728e-02
0.425               	2.595682004877e-02	5.887990648079e-03	3.481052003251e-02
0.43                	2.605333684507e-02	5.883001813180e-03	3.515897449813e-02
0.435               	2.600596531546e-02	5.862050722905e-03	3.530210293710e-02
0.44                	2.578151247329e-02	5.833550663605e-03	3.525132791778e-02
0.445               	2.550632787662e-02	5.793635347081e-03	3.499699229921e-02
0.45                	2.510457155522e-02	5.743342474074e-03	3.451623626147e-02
0.455               	2.452859791592e-02	5.677505770833e-03	3.382893139297e-02
0.46                	2.388309381763e-02	5.600896734407e-03	3.297100887248e-02
0.465               	2.320252326280e-02	5.516169686426e-03	3.195979220241e-02
0.47                	2.254578115770e-02	5.423531026130e-03	3.090760161583e-02
0.475               	2.191489144128e-02	5.326284372678e-03	2.989359778900e-02
0.48                	2.125862784926e-02	5.231941724226e-03	2.895503019340e-02
0.485               	2.053699500532e-02	5.140731773541e-03	2.807063445538e-02
0.49                	1.970597268826e-02	5.056219279973e-03	2.729867763739e-02
0.495               	1.876765000003e-02	4.978669624000e-03	2.665834528021e-02
0.5                 	1.776253644050e-02	4.902879397133e-03	2.610123241904e-02
0.505               	1.675145344591e-02	4.828315417990e-03	2.563210583435e-02
0.51                	1.585843176589e-02	4.754107231060e-03	2.522027908245e-02
0.515               	1.514327326912e-02	4.687786944494e-03	2.487622063341e-02
0.52                	1.457231844974e-02	4.629361823641e-03	2.459742370237e-02
0.525               	1.413874707312e-02	4.581584820599e-03	2.436604094119e-02
0.53                	1.382088365541e-02	4.550337751408e-03	2.418569094285e-02
0.535               	1.351499886696e-02	4.538162200913e-03	2.405998529739e-02
0.54                	1.329198943227e-02	4.541318471083e-03	2.398591237886e-02
0.545               	1.321760965161e-02	4.561515030702e-03	2.398295123961e-02
0.55                	1.318260574025e-02	4.602448543385e-03	2.410095907114e-02
0.555               	1.320750116471e-02	4.665008159027e-03	2.430207841536e-02
0.56                	1.333413587170e-02	4.747504183367e-03	2.458320261729e-02
0.565               	1.347857689509e-02	4.846610597873e-03	2.494773010802e-02
0.57                	1.364646873535e-02	4.964182627199e-03	2.539361998431e-02
0.575               	1.392433669847e-02	5.096390535494e-03	2.590521868678e-02
0.58                	1.418339961166e-02	5.239260255474e-03	2.649339606509e-02
0.585               	1.439849610361e-02	5.387597991915e-03	2.708812975117e-02
0.59                	1.454395129800e-02	5.540178871366e-03	2.770652742961e-02
0.595               	1.470757271254e-02	5.695714005436e-03	2.827177429717e-02
0.6                 	1.482944580862e-02	5.857300236552e-03	2.877995036914e-02
0.605               	1.499520895156e-02	6.026992158560e-03	2.930320485218e-02
0.61                	1.529688216047e-02	6.200969478106e-03	2.990504864599e-02
0.615               	1.565998296874e-02	6.375220230859e-03	3.054489519396e-02
0.62                	1.586997924153e-02	6.548176910266e-03	3.120440653637e-02
0.625               	1.608884390206e-02	6.722183179722e-03	3.194803140163e-02
0.63                	1.628375813681e-02	6.890789518401e-03	3.268555096979e-02
0.635               	1.681279554804e-02	7.049042161462e-03	3.334084206714e-02
0.64                	1.710717445099e-02	7.205598940499e-03	3.389721835058e-02
0.645               	1.767432635501e-02	7.346639231113e-03	3.439077468511e-02
0.65                	1.797013519409e-02	7.485310240588e-03	3.483597214369e-02
0.655               	1.800756060064e-02	7.601309520203e-03	3.527232871140e-02
0.66                	1.802385712603e-02	7.707367933126e-03	3.566445984419e-02
0.665               	1.777766865794e-02	7.805804665157e-03	3.603706619638e-02
0.67                	1.743400299896e-02	7.910204482636e-03	3.642969660680e-02
0.675               	1.693097749702e-02	8.016780829529e-03	3.683794281704e-02
0.68                	1.645101119790e-02	8.118440592149e-03	3.721588795383e-02
0.685               	1.626475654216e-02	8.214588735217e-03	3.755265499220e-02
0.69                	1.600761971318e-02	8.317185205867e-03	3.785844969755e-02
0.695               	1.580176497591e-02	8.423416075685e-03	3.814751932221e-02
0.7                 	1.576909409931e-02	8.531113399637e-03	3.836962708281e-02
0.705               	1.590609449696e-02	8.637002806517e-03	3.856151988711e-02
0.71                	1.606912062833e-02	8.727476597951e-03	3.875070800125e-02
0.715               	1.612804624923e-02	8.787576247099e-03	3.896545275413e-02
0.72                	1.636960277342e-02	8.819933534696e-03	3.921064748002e-02
0.725               	1.636873697339e-02	8.821322391770e-03	3.960333992451e-02
0.73                	1.656299178144e-02	8.848127396526e-03	4.031144562460e-02
0.735               	1.704497417718e-02	8.837448452510e-03	4.114464900327e-02
0.74                	1.749417525880e-02	8.823615636104e-03	4.206598897661e-02
0.745               	1.784295025953e-02	8.815551918713e-03	4.310162854752e-02
0.75                	1.822851634387e-02	8.788267373458e-03	4.401897356513e-02
0.755               	1.828961427746e-02	8.750788770740e-03	4.494380880403e-02
0.76                	1.842894035424e-02	8.711980863119e-03	4.578558402029e-02
0.765               	1.837754359710e-02	8.665404254166e-03	4.645938381098e-02
0.77                	1.857047680245e-02	8.602518389440e-03	4.713081674019e-02
0.775               	1.897255398858e-02	8.594417577156e-03	4.712893333205e-02
0.78                	1.889213817662e-02	8.660303998077e-03	4.633975081399e-02
0.785               	1.857228253432e-02	8.775921848266e-03	4.496230355544e-02
0.79                	1.798693460475e-02	8.972049810349e-03	4.336759409829e-02
0.795               	1.795264556061e-02	9.225907649828e-03	4.180724453926e-02
0.8                 	1.777726341652e-02	9.539307252303e-03	4.084924657685e-02
0.805               	1.773452824181e-02	9.892492791019e-03	4.051755054879e-02
0.81                	1.794443914563e-02	1.031724727139e-02	4.072936256286e-02
0.815               	1.821983615697e-02	1.079249633961e-02	4.148085250266e-02
0.82                	1.858953949613e-02	1.131055351778e-02	4.224972062209e-02
0.825               	1.884757579991e-02	1.190264158541e-02	4.294842877874e-02
0.83                	1.929300453107e-02	1.254975601059e-02	4.363530995475e-02
0.835               	1.990641146418e-02	1.334661534576e-02	4.453131380153e-02
0.84                	2.070928507682e-02	1.419122233011e-02	4.565082079504e-02
0.845               	2.164407548465e-02	1.513011721483e-02	4.703972501112e-02
0.85                	2.277609674093e-02	1.619948659891e-02	4.871415341518e-02
0.855               	2.351266778161e-02	1.736032998499e-02	5.097614661980e-02
0.86                	2.421339208469e-02	1.866355609115e-02	5.360727674601e-02
0.865               	2.492428536160e-02	2.009871833918e-02	5.650260358370e-02
0.87                	2.565588952670e-02	2.156035616689e-02	5.962789581155e-02
0.875               	2.618399297357e-02	2.304807484721e-02	6.283903006081e-02
0.88                	2.731609852085e-02	2.453325537563e-02	6.602130612071e-02
0.885               	2.799699626138e-02	2.597038722531e-02	6.907893975084e-02
0.89                	2.883496176399e-02	2.728798271663e-02	7.168818133924e-02
0.895               	2.913151743034e-02	2.841979341676e-02	7.378269137803e-02
0.9                 	2.942213373420e-02	2.940264059368e-02	7.529814991450e-02
0.905               	2.957032823813e-02	3.015305222820e-02	7.615480351984e-02
0.91                	2.928052468725e-02	3.073618557165e-02	7.634778466951e-02
0.915               	2.895231273161e-02	3.108586599810e-02	7.609425049374e-02
0.92                	2.832381571759e-02	3.126677181732e-02	7.564818112376e-02
0.925               	2.845283903838e-02	3.129249222347e-02	7.501261274194e-02
0.93                	2.858489577187e-02	3.122886184868e-02	7.442583747860e-02
0.935               	2.913302308699e-02	3.105110856574e-02	7.386241237728e-02
0.94                	2.986630606785e-02	3.087543814526e-02	7.350292566142e-02
0.945               	3.055557189659e-02	3.062765130964e-02	7.331512847691e-02
0.95                	3.142581739436e-02	3.042033952893e-02	7.341866544229e-02
0.955               	3.233284189901e-02	3.032164280465e-02	7.384327320469e-02
0.96                	3.408629614284e-02	3.013683817759e-02	7.420860411524e-02
0.965               	3.544758030027e-02	2.995015194824e-02	7.491677016887e-02
0.97                	3.619191714548e-02	2.974828708635e-02	7.552945370922e-02
0.975               	3.796628385494e-02	2.947802693791e-02	7.589177491600e-02
0.98                	4.101112730195e-02	2.903598462178e-02	7.613528300001e-02
0.985               	3.884756805145e-02	2.856953967808e-02	7.612703775213e-02
0.99                	3.822850571228e-02	2.798422613960e-02	7.607328877905e-02
0.995               	3.757123677146e-02	2.730220944727e-02	7.596152752671e-02
1                   	3.713889566484e-02	2.662353304501e-02	7.609430527142e-02
1.005               	3.719402068354e-02	2.599523992754e-02	7.635482318084e-02
1.01                	3.541057952985e-02	2.549981406660e-02	7.695800478615e-02
1.015               	3.381845332675e-02	2.522953760117e-02	7.693507852364e-02
1.02                	3.293807235174e-02	2.518726930277e-02	7.608761917577e-02
1.025               	3.272238360615e-02	2.526256038907e-02	7.442853920349e-02
1.03                	3.265145545351e-02	2.532216871514e-02	7.243849117218e-02
1.035               	3.308443551649e-02	2.526330837176e-02	7.037769603560e-02
1.04                	3.385295784420e-02	2.503403438138e-02	6.872172869940e-02
1.045               	3.493510173564e-02	2.471950203476e-02	6.761509403186e-02
1.05                	3.632990915567e-02	2.430063692658e-02	6.698032101599e-02
1.055               	3.697853884439e-02	2.381908184862e-02	6.668569194001e-02
1.06                	3.779700305038e-02	2.340833232225e-02	6.688226017120e-02
1.065               	3.865540771916e-02	2.311299440988e-02	6.759335494307e-02
1.07                	3.877025196554e-02	2.286818920971e-02	6.858106369764e-02
1.075               	3.905408046822e-02	2.267945699691e-02	6.978440634364e-02
1.08                	3.967093712656e-02	2.258705975847e-02	7.050610145574e-02
1.085               	3.992527796847e-02	2.257948323889e-02	7.048707267035e-02
1.09                	3.987166532707e-02	2.265234423159e-02	6.982516149519e-02
1.095               	3.978524122188e-02	2.282464707232e-02	6.892047172434e-02
1.1                 	3.986298012251e-02	2.309143874890e-02	6.827044825088e-02
1.105               	4.017267627553e-02	2.352008258011e-02	6.816330323879e-02
1.11                	4.013314318268e-02	2.406466799402e-02	6.859318398608e-02
1.115               	4.015891193182e-02	2.469332185557e-02	6.946590042986e-02
1.12                	4.022428940721e-02	2.541796242514e-02	7.056199377147e-02
1.125               	4.038899108576e-02	2.614512984097e-02	7.134333742897e-02
1.13                	4.034956064898e-02	2.683021429687e-02	7.146211640400e-02
1.135               	3.956913116460e-02	2.744432816382e-02	7.038470520723e-02
1.14                	3.790781874255e-02	2.795014971930e-02	6.856090074870e-02
1.145               	3.717325225001e-02	2.831461694866e-02	6.651327907829e-02
1.15                	3.585626794319e-02	2.849387649168e-02	6.456406154320e-02
1.155               	3.483641376523e-02	2.852438343373e-02	6.303334299737e-02
1.16                	3.449790578005e-02	2.839789945448e-02	6.186934552568e-02
1.165               	3.461490544993e-02	2.811469703263e-02	6.103271929543e-02
1.17                	3.488557964265e-02	2.786269560932e-02	6.069661186546e-02
1.175               	3.544154145912e-02	2.780432663215e-02	6.084215922836e-02
1.18                	3.638841853225e-02	2.794879629837e-02	6.153799212506e-02
1.185               	3.775457687368e-02	2.832553122719e-02	6.272469788481e-02
1.19                	3.934905534899e-02	2.883254659941e-02	6.419372916454e-02
1.195               	4.110086915798e-02	2.936832394525e-02	6.591010954012e-02
1.2                 	4.240876595301e-02	2.990765203254e-02	6.780960195884e-02
1.205               	4.350728336644e-02	3.049207526665e-02	6.976037281309e-02
1.21                	4.479141307524e-02	3.110148136768e-02	7.166698077767e-02
1.215               	4.483683966828e-02	3.178373668071e-02	7.325380869247e-02
1.22                	4.451734650066e-02	3.250118732498e-02	7.430573738116e-02
1.225               	4.326226301456e-02	3.316480239631e-02	7.483008106669e-02
1.23                	4.153053753700e-02	3.357926060885e-02	7.475351498922e-02
1.235               	3.954342769702e-02	3.379089225571e-02	7.386828289063e-02
1.24                	3.745435149906e-02	3.364502519799e-02	7.278613083948e-02
1.245               	3.566473941610e-02	3.318443817524e-02	7.149354806471e-02
1.25                	3.520700375405e-02	3.264817516209e-02	7.055470482228e-02
1.255               	3.571514785381e-02	3.229123018043e-02	6.949640868919e-02
1.26                	3.633521209545e-02	3.198459150709e-02	6.900369441025e-02
1.265               	3.666049973693e-02	3.184725945108e-02	6.870067352273e-02
1.27                	3.761886393910e-02	3.207992957554e-02	6.876212940625e-02
1.275               	3.944686075320e-02	3.272224505134e-02	6.934504935702e-02
1.28                	4.173520416118e-02	3.353466277231e-02	7.082371467262e-02
1.285               	4.627877118705e-02	3.449080355021e-02	7.319232255135e-02
1.29                	4.885739511831e-02	3.532749687957e-02	7.582918713277e-02
1.295               	4.991240728005e-02	3.616585697974e-02	7.878780431951e-02
1.3                 	5.171019677448e-02	3.674391010274e-02	8.138888824440e-02
1.305               	5.368113795910e-02	3.707132320182e-02	8.372726345861e-02
1.31                	5.476827147554e-02	3.713693245405e-02	8.520482172093e-02
1.315               	5.504101102494e-02	3.703797937951e-02	8.542971811392e-02
1.32                	5.464733358216e-02	3.681250002080e-02	8.471607646840e-02
1.325               	5.450343600620e-02	3.643049134091e-02	8.318085516375e-02
1.33                	5.289130754208e-02	3.579441542725e-02	8.132336294102e-02
1.335               	5.014925744477e-02	3.490995428245e-02	7.988132498372e-02
1.34                	4.699253155361e-02	3.376565332736e-02	7.897481966025e-02
1.345               	4.449435662406e-02	3.255749686519e-02	7.846710480353e-02
1.35                	4.270166164096e-02	3.151064702410e-02	7.842186095682e-02
1.355               	4.175241256196e-02	3.075857691741e-02	7.849748569550e-02
1.36                	4.211934959622e-02	3.031742364413e-02	7.874783774866e-02
1.365               	4.292459122681e-02	3.024597276291e-02	7.928199252398e-02
1.37                	4.374568588271e-02	3.037289480023e-02	8.020975872931e-02
1.375               	4.513995671088e-02	3.065027537939e-02	8.156736242467e-02
1.38                	4.795416045766e-02	3.104691886805e-02	8.300675048129e-02
1.385               	4.853296139276e-02	3.138012774893e-02	8.442120869177e-02
1.39                	4.853310543054e-02	3.148638929225e-02	8.595709486706e-02
1.395               	4.770958410408e-02	3.133399399044e-02	8.746722160227e-02
1.4                 	4.688301412458e-02	3.083096888616e-02	8.873909607796e-02
1.405               	4.588150145394e-02	3.011034069879e-02	9.021383261986e-02
1.41                	4.474666560960e-02	2.928146104377e-02	9.196013502615e-02
1.415               	4.379300069398e-02	2.849905847081e-02	9.392807112959e-02
1.42                	4.297449853358e-02	2.789812042866e-02	9.617166163191e-02
1.425               	4.244261925501e-02	2.754007539844e-02	9.859239853880e-02
1.43                	4.240148101063e-02	2.749676790228e-02	1.009931818594e-01
1.435               	4.269282000406e-02	2.778597270324e-02	1.027779314900e-01
1.44                	4.316216241176e-02	2.833707409222e-02	1.031567601635e-01
1.445               	4.371301468964e-02	2.907283856217e-02	1.021198697621e-01
1.45                	4.309425295367e-02	2.976367134785e-02	1.000560595223e-01
1.455               	4.196026632239e-02	3.027602085453e-02	9.702353928140e-02
1.46                	4.111436460431e-02	3.046553298135e-02	9.364006918711e-02
1.465               	4.086464696222e-02	3.027393787391e-02	9.066468826904e-02
1.47                	4.090168466840e-02	2.960445011927e-02	8.864376400553e-02
1.475               	4.078924727707e-02	2.853282661168e-02	8.745747155181e-02
1.48                	4.027963175858e-02	2.731031757142e-02	8.724651098976e-02
1.485               	4.021086875981e-02	2.616172242806e-02	8.749538010674e-02
1.49                	4.039849389023e-02	2.536960255341e-02	8.705258300147e-02
1.495               	4.086729482393e-02	2.513520553908e-02	8.585823439335e-02
1.5                 	4.159792098960e-02	2.530594542137e-02	8.436973718890e-02
1.505               	4.174216923082e-02	2.587972526937e-02	8.337145297825e-02
1.51                	4.221737990621e-02	2.672945678042e-02	8.313992161810e-02
1.515               	4.234358739681e-02	2.760417445541e-02	8.387104488524e-02
1.52                	4.298128871076e-02	2.862659141425e-02	8.554651490727e-02
1.525               	4.360011725780e-02	2.971591748095e-02	8.739636964944e-02
1.53                	4.419198180427e-02	3.074562818476e-02	8.954100088356e-02
1.535               	4.478517485887e-02	3.178402123285e-02	9.110346940261e-02
1.54                	4.506293479378e-02	3.270294262210e-02	9.204327345570e-02
1.545               	4.572137544860e-02	3.363855675517e-02	9.251428333733e-02
1.55                	4.521850744333e-02	3.442120219471e-02	9.236795237248e-02
1.555               	4.403709561878e-02	3.495372819674e-02	9.136405447607e-02
1.56                	4.289859254217e-02	3.501833918216e-02	8.946719564806e-02
1.565               	4.196256751487e-02	3.443959236621e-02	8.673653577400e-02
1.57                	4.055155729957e-02	3.333503728096e-02	8.365864076072e-02
1.575               	3.972295454342e-02	3.220791764126e-02	8.082581592117e-02
1.58                	3.955116360456e-02	3.128607158500e-02	7.855033721996e-02
1.585               	3.994697835825e-02	3.091157013287e-02	7.745891076638e-02
1.59                	4.069953996423e-02	3.118284992280e-02	7.761379671395e-02
1.595               	4.276949772324e-02	3.189804238466e-02	7.889070083419e-02
1.6                 	4.574001728497e-02	3.275580545540e-02	8.041136600491e-02
1.605               	4.646014413448e-02	3.377464172390e-02	8.185164148980e-02
1.61                	4.645503234537e-02	3.483265675607e-02	8.317934054853e-02
1.615               	4.730912340160e-02	3.606462629169e-02	8.468272498264e-02
1.62                	4.700226266334e-02	3.739189807870e-02	8.658191930724e-02
1.625               	4.661753686316e-02	3.882685722268e-02	8.868004406749e-02
1.63                	4.686385778073e-02	4.032902827218e-02	9.075127066206e-02
1.635               	4.677056045702e-02	4.157807634380e-02	9.200449319975e-02
1.64                	4.646949325315e-02	4.208028399315e-02	9.229524670396e-02
1.645               	4.486820268952e-02	4.156384622860e-02	9.119287060929e-02
1.65                	4.347483789310e-02	4.028039755895e-02	8.900768160252e-02
1.655               	4.361103204681e-02	3.873625398081e-02	8.569863049914e-02
1.66                	4.445905286212e-02	3.773397233328e-02	8.193885233476e-02
1.665               	4.533801791968e-02	3.756754256799e-02	7.896753040653e-02
1.67                	4.636527388025e-02	3.861947892988e-02	7.782325692769e-02
1.675               	4.927292201651e-02	4.037302967758e-02	7.824663973478e-02
1.68                	5.239769923694e-02	4.211023741449e-02	7.977052086103e-02
1.685               	4.975676658722e-02	4.362661621113e-02	8.269401470457e-02
1.69                	5.090878399510e-02	4.513402057611e-02	8.697785666382e-02
1.695               	5.120272071098e-02	4.695028205396e-02	9.281726379716e-02
1.7                 	5.119026545978e-02	4.898532205787e-02	9.909158467046e-02
1.705               	5.124454630521e-02	5.063557555000e-02	1.033362069750e-01
1.71                	5.048373959886e-02	5.109318747276e-02	1.047534558074e-01
1.715               	4.886281544095e-02	4.990174155942e-02	1.029314707824e-01
1.72                	4.767195935920e-02	4.764944955033e-02	9.918134626043e-02
1.725               	4.633199431614e-02	4.524094155977e-02	9.566109803008e-02
1.73                	4.550122717393e-02	4.381267860484e-02	9.374932206089e-02
1.735               	4.549028643874e-02	4.425373961224e-02	9.367129335003e-02
1.74                	4.586515484388e-02	4.595984704606e-02	9.438611818439e-02
1.745               	4.959314569567e-02	4.764771260103e-02	9.564602794571e-02
1.75                	5.181814675711e-02	4.931081074362e-02	9.733234847989e-02
1.755               	5.404788156401e-02	5.140083034195e-02	1.001520105876e-01
1.76                	5.695213117066e-02	5.438930132115e-02	1.036841473148e-01
1.765               	5.944864380855e-02	5.831900071590e-02	1.077093182293e-01
1.77                	6.000270790837e-02	6.252682158775e-02	1.098655421544e-01
1.775               	6.047682370782e-02	6.576762091704e-02	1.085127600371e-01
1.78                	5.876486741269e-02	6.665106858644e-02	1.043143177519e-01
1.785               	5.536479695702e-02	6.476607314559e-02	9.899940500402e-02
1.79                	5.347015595921e-02	6.079678685681e-02	9.402831673494e-02
1.795               	5.347871111117e-02	5.669018107630e-02	9.007805644813e-02
1.8                 	5.352791485326e-02	5.588534995385e-02	8.946591732607e-02
1.805               	5.314787944934e-02	5.869556318084e-02	9.209440851464e-02
1.81                	5.689055512520e-02	6.160068321596e-02	9.506194426696e-02
1.815               	5.676052850842e-02	6.356964731187e-02	9.855943577271e-02
1.82                	5.662491186635e-02	6.641674713116e-02	1.039703565942e-01
1.825               	5.921014293906e-02	7.150921473127e-02	1.113395825043e-01
1.83                	6.491556773973e-02	7.846966123480e-02	1.192080323044e-01
1.835               	6.522115018337e-02	8.629857361106e-02	1.246707359329e-01
1.84                	6.408248538444e-02	9.179154271626e-02	1.209230806891e-01
1.845               	6.323728977157e-02	9.095568442719e-02	1.100071326488e-01
1.85                	6.255190430462e-02	8.355051144395e-02	9.834630649281e-02
1.855               	6.099075510545e-02	7.581538007417e-02	9.065150506210e-02
