/*--------------------------------*- C++ -*----------------------------------*\
  =========                 |
  \\      /  F ield         | OpenFOAM: The Open Source CFD Toolbox
   \\    /   O peration     | Website:  https://openfoam.org
    \\  /    A nd           | Version:  7
     \\/     M anipulation  |
\*---------------------------------------------------------------------------*/
FoamFile
{
    version     2.0;
    format      ascii;
    class       volVectorField;
    location    "1";
    object      cellDisplacement;
}
// * * * * * * * * * * * * * * * * * * * * * * * * * * * * * * * * * * * * * //

dimensions      [0 1 0 0 0 0 0];

internalField   nonuniform List<vector> 
7540
(
(-0.0505154719117 0.0282778514135 0)
(-0.0510269079452 0.0285890273764 0)
(-0.0515358760046 0.0288964570986 0)
(-0.0520422486971 0.0291998029528 0)
(-0.0525458938895 0.0294990249878 0)
(-0.0530466717891 0.0297940143306 0)
(-0.0535444411623 0.0300846794916 0)
(-0.0540390595791 0.0303709301881 0)
(-0.0545303835605 0.0306526723854 0)
(-0.0550204637268 0.0309376106252 0)
(-0.0555088665498 0.0312183736475 0)
(-0.0559929912848 0.0314940794026 0)
(-0.0564727056316 0.0317641406094 0)
(-0.0569480477535 0.0320265087995 0)
(-0.0505554718244 0.0819695097926 0)
(-0.0510727028368 0.0828693733718 0)
(-0.0515875572656 0.083758997999 0)
(-0.0520998831048 0.0846378037744 0)
(-0.0526095334883 0.0855054790404 0)
(-0.0531163587167 0.0863616768955 0)
(-0.0536202083795 0.0872060933965 0)
(-0.0541209312539 0.088038438258 0)
(-0.0546206079721 0.0888676726544 0)
(-0.0551188263548 0.0896930345355 0)
(-0.0556129653977 0.0905043667599 0)
(-0.0561028773734 0.091301245119 0)
(-0.0565884198125 0.0920822701782 0)
(-0.0570696021379 0.0928421570801 0)
(-0.0506339974074 0.130312411365 0)
(-0.0511627156313 0.131744609402 0)
(-0.051689125747 0.133161434403 0)
(-0.0522130685652 0.134562335594 0)
(-0.0527343889445 0.135946717568 0)
(-0.0532529304505 0.13731403597 0)
(-0.0537685354527 0.13866378697 0)
(-0.0542833298185 0.140006140164 0)
(-0.054796862934 0.141339850524 0)
(-0.05530642397 0.142652926312 0)
(-0.0558118578758 0.143944715744 0)
(-0.0563130075018 0.145213805306 0)
(-0.0568097151239 0.14645883754 0)
(-0.0573019553825 0.147672373817 0)
(-0.050754643242 0.173927731044 0)
(-0.0512999981867 0.175851102759 0)
(-0.0518431338108 0.177754860342 0)
(-0.0523838785691 0.179638290564 0)
(-0.0529220673295 0.18150061699 0)
(-0.0534575350429 0.183341162072 0)
(-0.0539924623616 0.185171264501 0)
(-0.0545263504447 0.186989074744 0)
(-0.0550563788939 0.188780668631 0)
(-0.055582385934 0.190545187436 0)
(-0.0561042016761 0.192280985789 0)
(-0.0566216611831 0.193986798409 0)
(-0.0571346009471 0.195661465311 0)
(-0.057642962038 0.197295861977 0)
(-0.0509226573032 0.213473319643 0)
(-0.0514896671461 0.215861894852 0)
(-0.0520545114784 0.218226766137 0)
(-0.0526170152444 0.220567122483 0)
(-0.0531770062619 0.222882146078 0)
(-0.0537367375825 0.22518450638 0)
(-0.0542956704992 0.227471809786 0)
(-0.0548508498628 0.22972783457 0)
(-0.055402091747 0.231951432264 0)
(-0.0559492118465 0.234140883652 0)
(-0.0564920339251 0.2362947025 0)
(-0.0570303897988 0.238411897056 0)
(-0.0575641057306 0.240491206709 0)
(-0.0580954993417 0.242535285086 0)
(-0.0511472910055 0.249537005643 0)
(-0.0517405057607 0.252373983815 0)
(-0.0523316694329 0.255183771521 0)
(-0.052920584804 0.257965461997 0)
(-0.0535095500813 0.260732792192 0)
(-0.0540979512357 0.263482855657 0)
(-0.054682699274 0.266197242174 0)
(-0.0552635954216 0.268874214749 0)
(-0.0558404313188 0.271512032528 0)
(-0.0564130125309 0.274109201233 0)
(-0.0569811577707 0.276664583034 0)
(-0.057544686209 0.279177207601 0)
(-0.0581059188434 0.281660022851 0)
(-0.0586642781707 0.284099578021 0)
(-0.0514375682261 0.282633233756 0)
(-0.0520618974328 0.285908788512 0)
(-0.052684314324 0.28915814225 0)
(-0.0533070576305 0.292391043795 0)
(-0.0539294452213 0.29560412867 0)
(-0.0545482428187 0.298777280245 0)
(-0.0551632268098 0.301908281158 0)
(-0.0557741912622 0.304995335295 0)
(-0.0563809410919 0.308037086346 0)
(-0.0569832774256 0.311032295289 0)
(-0.0575810017107 0.313979922322 0)
(-0.0581765226308 0.31689445182 0)
(-0.0587691620425 0.319772021994 0)
(-0.0593556335606 0.322581893281 0)
(-0.051803316018 0.313225933993 0)
(-0.0524661236504 0.316956900379 0)
(-0.0531296620847 0.320670698018 0)
(-0.0537900111178 0.324347256038 0)
(-0.0544470043285 0.327980971917 0)
(-0.0551003668148 0.331569232047 0)
(-0.0557498457569 0.335109924185 0)
(-0.0563952107784 0.338601540224 0)
(-0.0570362302179 0.342042696613 0)
(-0.0576726723794 0.345432060664 0)
(-0.0583069749932 0.348784827177 0)
(-0.0589383558131 0.35209682481 0)
(-0.0595633840629 0.355346288323 0)
(-0.060181716175 0.35851899538 0)
(-0.0522656089247 0.341776066869 0)
(-0.0529724499483 0.345972417371 0)
(-0.0536762424517 0.35012434409 0)
(-0.0543767608999 0.354230266064 0)
(-0.0550737258827 0.358287348596 0)
(-0.055766881388 0.362293270357 0)
(-0.0564560009537 0.366246385887 0)
(-0.057140861245 0.370145209243 0)
(-0.057821211081 0.373992086829 0)
(-0.0584993216038 0.37779775278 0)
(-0.0591742967731 0.381557332582 0)
(-0.0598425496844 0.385247947815 0)
(-0.0605037875146 0.388866645824 0)
(-0.0611575601736 0.392398561653 0)
(-0.0528400943223 0.368665288725 0)
(-0.0535923174679 0.373311183421 0)
(-0.0543413662421 0.377907346103 0)
(-0.0550869155605 0.382451024068 0)
(-0.0558286667791 0.386939684565 0)
(-0.056566350573 0.391371453198 0)
(-0.0572996955257 0.395744613585 0)
(-0.0580319227754 0.400079739833 0)
(-0.0587618649019 0.404369821153 0)
(-0.0594850967984 0.408590431892 0)
(-0.0602013585554 0.412736006309 0)
(-0.0609103145366 0.416803607731 0)
(-0.0616116579337 0.420790537713 0)
(-0.0623048336838 0.424681799438 0)
(-0.0535440226388 0.394254646014 0)
(-0.0543474841322 0.399365076797 0)
(-0.0551476092241 0.404419833716 0)
(-0.0559440724832 0.409416620155 0)
(-0.056736583103 0.414353494662 0)
(-0.0575248499379 0.419228762351 0)
(-0.0583121501928 0.424063861367 0)
(-0.0590971360277 0.428850345229 0)
(-0.0598749048247 0.433556279258 0)
(-0.0606451360562 0.438179522049 0)
(-0.061407469402 0.442717115989 0)
(-0.0621615776479 0.447166504013 0)
(-0.0629071641917 0.451525528816 0)
(-0.0636435034466 0.455778464765 0)
(-0.0544006572262 0.418906917054 0)
(-0.0552617949484 0.424501116076 0)
(-0.0561194981368 0.430034718483 0)
(-0.0569734495523 0.435505835528 0)
(-0.0578233310076 0.440912641627 0)
(-0.0586722950607 0.44627614958 0)
(-0.0595186971935 0.451586027202 0)
(-0.0603574057236 0.45680793451 0)
(-0.0611880303578 0.461938798544 0)
(-0.0620101679905 0.466975737461 0)
(-0.0628234707685 0.471916413154 0)
(-0.0636276385913 0.476759012821 0)
(-0.0644223650686 0.481501652049 0)
(-0.0652100682782 0.486148532489 0)
(-0.0554370351019 0.442980457056 0)
(-0.0563633379692 0.449086179703 0)
(-0.0572862166313 0.455127657743 0)
(-0.0582053390534 0.461103105838 0)
(-0.0591235097845 0.46703126334 0)
(-0.0600386759912 0.47289899499 0)
(-0.0609455593401 0.47867075896 0)
(-0.0618436684676 0.484342685715 0)
(-0.0627325869402 0.48991175135 0)
(-0.0636119753597 0.495375904598 0)
(-0.0644815036228 0.50073335903 0)
(-0.0653408461516 0.505982446414 0)
(-0.0661927221456 0.511140296049 0)
(-0.067034433463 0.516179581228 0)
(-0.0566851697518 0.466836739574 0)
(-0.0576854064474 0.473490213228 0)
(-0.0586825897225 0.4800803864 0)
(-0.0596786467091 0.486618055014 0)
(-0.0606709045378 0.493085531751 0)
(-0.0616541627745 0.499447622972 0)
(-0.0626279178506 0.505700632486 0)
(-0.0635917415646 0.51184158091 0)
(-0.0645452985853 0.517868540133 0)
(-0.0654882735972 0.523779933828 0)
(-0.0664204830695 0.529577262775 0)
(-0.0673437938544 0.535270264551 0)
(-0.0682557728032 0.540843531663 0)
(-0.0691503839333 0.546248137815 0)
(-0.0581786309838 0.49082095784 0)
(-0.0592672102957 0.498099156103 0)
(-0.0603542280759 0.505318542119 0)
(-0.0614321668234 0.512429846174 0)
(-0.062500462564 0.519426778072 0)
(-0.0635585351591 0.526305496529 0)
(-0.0646059206936 0.533063164788 0)
(-0.0656422354828 0.53969769253 0)
(-0.066667104081 0.546207242741 0)
(-0.067684312593 0.552616361701 0)
(-0.0686907193163 0.55890531147 0)
(-0.0696792864383 0.565030626434 0)
(-0.0706493413418 0.57098532752 0)
(-0.071598964939 0.576747703681 0)
(-0.0599738786742 0.515385350327 0)
(-0.0611594333402 0.52332610983 0)
(-0.0623349534016 0.531146069915 0)
(-0.0634998864338 0.53884135764 0)
(-0.06465379651 0.546409051935 0)
(-0.0657963784488 0.553847564877 0)
(-0.066927333894 0.561155615635 0)
(-0.0680464320784 0.568332392296 0)
(-0.0691563190731 0.575394578847 0)
(-0.0702527247947 0.582314826272 0)
(-0.0713282785041 0.589045332551 0)
(-0.0723824076571 0.5955823159 0)
(-0.0734146529851 0.601922738311 0)
(-0.0744229769027 0.608045290258 0)
(-0.0621137673902 0.540857423349 0)
(-0.0633971058764 0.549442956649 0)
(-0.0646694737132 0.557896947739 0)
(-0.0659306144117 0.566218047767 0)
(-0.0671803830267 0.574405781197 0)
(-0.0684186332308 0.582459762497 0)
(-0.0696452462879 0.59038083824 0)
(-0.070860053167 0.598166123492 0)
(-0.0720571916531 0.605777389321 0)
(-0.073230086952 0.613171320063 0)
(-0.0743782117975 0.620344705424 0)
(-0.0755012684042 0.627296122966 0)
(-0.0765990500903 0.634024780144 0)
(-0.0776692092088 0.640508569483 0)
(-0.0646244487712 0.567414206064 0)
(-0.0660164613498 0.576700986423 0)
(-0.0673976330327 0.585853885471 0)
(-0.0687682662675 0.594876287782 0)
(-0.070128159302 0.60376655053 0)
(-0.0714803606164 0.61254313807 0)
(-0.0728168314244 0.621153356389 0)
(-0.0741262603895 0.629524082455 0)
(-0.0754080760371 0.637650891155 0)
(-0.0766615480542 0.645527751668 0)
(-0.0778867174075 0.653155351455 0)
(-0.0790838724874 0.660537636991 0)
(-0.0802527079758 0.667672893662 0)
(-0.0813937117624 0.674555233066 0)
(-0.0675530073837 0.595339961929 0)
(-0.0690639777095 0.605392895167 0)
(-0.070571456648 0.615357722572 0)
(-0.0720730120144 0.625217355032 0)
(-0.0735598298634 0.634913443506 0)
(-0.0750237168209 0.644392132949 0)
(-0.0764568265634 0.653600071697 0)
(-0.0778643795771 0.662569888755 0)
(-0.0792407755277 0.671265219768 0)
(-0.0805809921196 0.679654648576 0)
(-0.0818951754316 0.687799370595 0)
(-0.0831809698479 0.695684740764 0)
(-0.0844301087302 0.703260542309 0)
(-0.0856322597251 0.710457575571 0)
(-0.070896466351 0.624447801624 0)
(-0.0725435659675 0.635386032511 0)
(-0.0741791175019 0.646182762144 0)
(-0.075800143627 0.65681483008 0)
(-0.0774033536247 0.667257897818 0)
(-0.0789795002086 0.677447538054 0)
(-0.080528227954 0.687378519365 0)
(-0.0820442215206 0.697014869069 0)
(-0.0835211706499 0.706315170612 0)
(-0.084962810575 0.715301685273 0)
(-0.0863657882928 0.723951940833 0)
(-0.0877260877119 0.732239003241 0)
(-0.0890395782685 0.740137148158 0)
(-0.0902932188977 0.747560180103 0)
(-0.0573572406121 0.0322514316727 0)
(-0.0577058279608 0.0324435724608 0)
(-0.0580593564629 0.032634803542 0)
(-0.0584179457855 0.0328269158034 0)
(-0.058783275417 0.0330252266959 0)
(-0.0591552902429 0.0332246889865 0)
(-0.0595320742563 0.0334247089408 0)
(-0.0599135596015 0.033624921261 0)
(-0.0602996756394 0.0338245240174 0)
(-0.0606903391115 0.0340230399668 0)
(-0.0610854431921 0.0342201509937 0)
(-0.0614848563564 0.0344154560728 0)
(-0.0618903799501 0.0346171560174 0)
(-0.0623017391717 0.0348164713759 0)
(-0.0627164988458 0.0350126548229 0)
(-0.0631343878365 0.035205604433 0)
(-0.0635551176673 0.0353943810611 0)
(-0.0639783655416 0.0355782181053 0)
(-0.0644037613286 0.0357567503916 0)
(-0.0648330051077 0.0359303120572 0)
(-0.0652655829625 0.0360974186954 0)
(-0.0657006708325 0.0362578997925 0)
(-0.0661376696123 0.0364107616859 0)
(-0.0665736296677 0.0365537361158 0)
(-0.0670078548687 0.0366849855316 0)
(-0.0674396007333 0.0368030192743 0)
(-0.0678680509518 0.0369064492067 0)
(-0.0682923180716 0.0369939388663 0)
(-0.0687114431696 0.0370641924909 0)
(-0.0691243911583 0.0371159121978 0)
(-0.0695300458211 0.0371477884016 0)
(-0.0699272045842 0.0371585012532 0)
(-0.0703145729886 0.0371467212584 0)
(-0.0706907588238 0.0371111139109 0)
(-0.0710542658856 0.0370503461301 0)
(-0.0714034873203 0.0369630931796 0)
(-0.0717366985131 0.0368480452952 0)
(-0.0720520494881 0.0367039128556 0)
(-0.0723487408453 0.0365288923384 0)
(-0.0726247362545 0.0363224520774 0)
(-0.0728765366165 0.036084042722 0)
(-0.0731016906277 0.0358127342875 0)
(-0.0732975790513 0.0355076443969 0)
(-0.073461393713 0.0351679625034 0)
(-0.0735901243083 0.0347929897779 0)
(-0.0736805431295 0.0343821532754 0)
(-0.0737291883273 0.0339350153528 0)
(-0.0737323657406 0.0334512773545 0)
(-0.0736860733653 0.0329307834383 0)
(-0.0735860103438 0.0323735247471 0)
(-0.0734276017992 0.031779636282 0)
(-0.0732059079866 0.0311493932883 0)
(-0.0729156185579 0.0304832070548 0)
(-0.0725510223347 0.0297816159274 0)
(-0.0721059747159 0.0290452740054 0)
(-0.0715738626464 0.0282749369594 0)
(-0.0709475671154 0.0274714449688 0)
(-0.070219423196 0.0266357028309 0)
(-0.069381177704 0.0257686573297 0)
(-0.0684239446388 0.0248712719912 0)
(-0.0673381586708 0.0239444993789 0)
(-0.0661135270824 0.022989251103 0)
(-0.0647389807466 0.0220063657385 0)
(-0.0632026249588 0.020996574854 0)
(-0.061491691236 0.0199604673705 0)
(-0.0595924915877 0.0188984524855 0)
(-0.057490377265 0.0178107214256 0)
(-0.0551697046482 0.016697208336 0)
(-0.0526138117838 0.0155575506935 0)
(-0.049805010203 0.014391049743 0)
(-0.0467245981105 0.0131966316216 0)
(-0.0433529030053 0.0119728100763 0)
(-0.0396693644543 0.0107176520188 0)
(-0.0356526715208 0.00942874769339 0)
(-0.031280974891 0.00810318812938 0)
(-0.0265322024173 0.00673755429387 0)
(-0.0213845212866 0.00532792592274 0)
(-0.0158170158185 0.00386992508218 0)
(-0.00981070633065 0.00235882645359 0)
(-0.00335130634472 0.000790218064979 0)
(-0.0574838926736 0.0934936551488 0)
(-0.057836912472 0.0940500635175 0)
(-0.0581949817168 0.0946084661161 0)
(-0.0585598451793 0.0951757733353 0)
(-0.0589314737332 0.095752170389 0)
(-0.05930801275 0.096330476392 0)
(-0.0596894134908 0.096910160401 0)
(-0.0600756161637 0.0974900933776 0)
(-0.0604665393767 0.0980688824777 0)
(-0.0608620860157 0.0986453794307 0)
(-0.0612621403899 0.0992185869691 0)
(-0.0616685509089 0.0997965856338 0)
(-0.062081095092 0.100378219319 0)
(-0.062497360608 0.100952141898 0)
(-0.0629171073292 0.101517848539 0)
(-0.0633400745957 0.102073739218 0)
(-0.0637659675827 0.102617246748 0)
(-0.064194461317 0.103146223296 0)
(-0.0646251988392 0.10365882495 0)
(-0.0650597455423 0.104165089257 0)
(-0.0654974380258 0.104651224151 0)
(-0.0659375639111 0.105127636909 0)
(-0.0663793602102 0.105579403203 0)
(-0.0668199225551 0.106001307954 0)
(-0.0672585448609 0.106389111334 0)
(-0.06769446923 0.106738843887 0)
(-0.068126869216 0.107047010941 0)
(-0.0685548457579 0.107310077671 0)
(-0.0689774268642 0.107524503511 0)
(-0.0693935631803 0.107686682585 0)
(-0.0698021234868 0.107792939532 0)
(-0.0702018899336 0.107839541268 0)
(-0.0705915528666 0.107822708192 0)
(-0.0709697052749 0.1077386325 0)
(-0.0713348368108 0.107583500008 0)
(-0.0716853273242 0.107353513509 0)
(-0.0720194398553 0.107044916793 0)
(-0.0723353130116 0.106654018025 0)
(-0.0726321744933 0.10617569253 0)
(-0.0729079898433 0.105607712945 0)
(-0.0731592166635 0.104948436116 0)
(-0.0733834056036 0.104195098685 0)
(-0.0735779400776 0.103345059155 0)
(-0.0737400159384 0.102395851472 0)
(-0.0738666289488 0.10134529742 0)
(-0.0739545596806 0.100191548446 0)
(-0.0740003569243 0.0989331140754 0)
(-0.0740003196751 0.0975688782874 0)
(-0.0739504744615 0.0960981127212 0)
(-0.0738465546699 0.0945204866602 0)
(-0.0736839803718 0.0928360658877 0)
(-0.0734578292027 0.0910453066552 0)
(-0.0731628082161 0.0891490444454 0)
(-0.0727932234521 0.087148473035 0)
(-0.0723429470535 0.0850451159794 0)
(-0.0718053818869 0.0828407898211 0)
(-0.0711734236593 0.0805375589075 0)
(-0.0704394205549 0.0781376818264 0)
(-0.0695951304812 0.0756435495795 0)
(-0.0686316760873 0.0730576157163 0)
(-0.0675394978224 0.070382318739 0)
(-0.0663083054355 0.0676199971616 0)
(-0.0649270284971 0.0647727976777 0)
(-0.0633837667456 0.0618425769413 0)
(-0.0616657413629 0.0588307975317 0)
(-0.0597592486662 0.0557384187496 0)
(-0.0576496182024 0.052565783 0)
(-0.0553211778797 0.0493124986831 0)
(-0.0527572296137 0.0459773207661 0)
(-0.0499400400665 0.042558030576 0)
(-0.0468508524851 0.0390513168582 0)
(-0.0434699275456 0.0354526608688 0)
(-0.0397766236296 0.0317562292379 0)
(-0.0357495304611 0.0279547798059 0)
(-0.0313666750102 0.0240395880182 0)
(-0.0266058261647 0.0200004061388 0)
(-0.0214449369224 0.0158254774936 0)
(-0.0158627830425 0.0115016486442 0)
(-0.00983989369473 0.00701466979011 0)
(-0.00336109812504 0.00235109986345 0)
(-0.0577257878105 0.148713415541 0)
(-0.0580887398632 0.149609737258 0)
(-0.0584585933553 0.150511488577 0)
(-0.0588335871016 0.151422325855 0)
(-0.0592137047282 0.152338203803 0)
(-0.0595989086362 0.153258109893 0)
(-0.0599891414489 0.154180334216 0)
(-0.0603843322545 0.155103368939 0)
(-0.060784393143 0.156025787895 0)
(-0.0611892157144 0.156946044057 0)
(-0.0616006975346 0.157872349938 0)
(-0.0620186136881 0.158802880359 0)
(-0.0624405049419 0.159724928842 0)
(-0.0628661467301 0.160637146107 0)
(-0.0632952873183 0.161537194095 0)
(-0.0637276328257 0.162421742645 0)
(-0.0641628551844 0.163287559611 0)
(-0.0646005892727 0.164131627371 0)
(-0.0650424765481 0.164963117401 0)
(-0.0654879123074 0.165778804776 0)
(-0.0659362082106 0.166565154569 0)
(-0.0663868806053 0.167329469377 0)
(-0.0668368452141 0.168052166561 0)
(-0.0672853933893 0.168728568006 0)
(-0.0677317638259 0.169352763701 0)
(-0.0681751361212 0.169918926199 0)
(-0.0686146338101 0.170421760403 0)
(-0.0690493141754 0.170855863159 0)
(-0.0694781649427 0.171215741062 0)
(-0.0699000991955 0.171495777349 0)
(-0.0703139505476 0.171690240209 0)
(-0.0707184681955 0.171793299864 0)
(-0.0711123117148 0.17179904966 0)
(-0.0714940455822 0.171701534027 0)
(-0.0718621333374 0.171494780879 0)
(-0.0722149313054 0.171172837273 0)
(-0.0725506818065 0.170729807887 0)
(-0.0728675057722 0.170159895683 0)
(-0.0731646562422 0.169455119754 0)
(-0.0734400956701 0.168611050104 0)
(-0.0736902328754 0.167624918007 0)
(-0.0739126190261 0.166492186435 0)
(-0.0741046411472 0.165208493337 0)
(-0.0742635015036 0.163769704924 0)
(-0.0743862058722 0.16217208166 0)
(-0.0744695483809 0.160412341122 0)
(-0.0745100946351 0.158487702678 0)
(-0.0745041630553 0.156395918075 0)
(-0.0744478042921 0.154135294914 0)
(-0.0743367789656 0.151704712385 0)
(-0.0741665335661 0.14910362793 0)
(-0.0739321738042 0.146332074235 0)
(-0.0736284357191 0.143390645747 0)
(-0.0732496544581 0.140280473665 0)
(-0.0727897306338 0.137003188781 0)
(-0.0722420941936 0.13356087161 0)
(-0.0715996657805 0.129955989412 0)
(-0.0708548156088 0.126191319816 0)
(-0.0699993199375 0.122269860943 0)
(-0.0690243153032 0.11819472806 0)
(-0.0679202507744 0.113969036924 0)
(-0.0666768386174 0.109595774132 0)
(-0.0652830039416 0.105077654895 0)
(-0.0637268341072 0.100416968797 0)
(-0.0619955289743 0.0956154142346 0)
(-0.0600753534507 0.0906739224094 0)
(-0.0579515942872 0.0855924719882 0)
(-0.055608523707 0.0803698958758 0)
(-0.0530293732876 0.0750036820308 0)
(-0.0501963225869 0.0694897709207 0)
(-0.0470905083775 0.0638223531096 0)
(-0.0436920621463 0.0579936716757 0)
(-0.0399801857936 0.0519938356734 0)
(-0.0359332784802 0.0458106529136 0)
(-0.0315291315616 0.0394294933389 0)
(-0.0267452143041 0.0328332000634 0)
(-0.0215590822566 0.0260020789969 0)
(-0.0159489563289 0.0189140332485 0)
(-0.00989455461595 0.0115450078842 0)
(-0.00337954479972 0.00387220587211 0)
(-0.0580831395365 0.198709628672 0)
(-0.0584597911017 0.199924209035 0)
(-0.0588416386128 0.20113781931 0)
(-0.0592288411479 0.202359551798 0)
(-0.0596213688677 0.203588535671 0)
(-0.0600191709541 0.204822923824 0)
(-0.060422184194 0.206060869927 0)
(-0.0608303317057 0.207300717153 0)
(-0.0612435170031 0.208540689676 0)
(-0.0616636922666 0.20978934042 0)
(-0.0620906285334 0.211044419249 0)
(-0.0625218121074 0.212291919252 0)
(-0.0629570340678 0.213529933371 0)
(-0.0633960552737 0.214755599988 0)
(-0.0638385913693 0.215965049388 0)
(-0.0642843293367 0.217154482513 0)
(-0.0647329269321 0.218320279599 0)
(-0.0651861630381 0.219471421437 0)
(-0.0656434585526 0.220603826236 0)
(-0.0661018730434 0.221699428353 0)
(-0.0665630611765 0.222767797526 0)
(-0.0670261293361 0.223792438655 0)
(-0.0674880229784 0.224763137109 0)
(-0.0679480109413 0.225673167899 0)
(-0.068405304736 0.226515249675 0)
(-0.0688590578661 0.227282484098 0)
(-0.0693083588057 0.22796800639 0)
(-0.0697522283449 0.228564821168 0)
(-0.0701896158184 0.229065771616 0)
(-0.0706193951608 0.22946352865 0)
(-0.0710403610346 0.229750608473 0)
(-0.0714512246486 0.229919395558 0)
(-0.0718506092487 0.229962171681 0)
(-0.0722370452402 0.229871150566 0)
(-0.0726089648798 0.229638517032 0)
(-0.0729646964713 0.229256470036 0)
(-0.0733024579969 0.228717269259 0)
(-0.0736203501013 0.228013284448 0)
(-0.0739176501416 0.227134032145 0)
(-0.0741923161934 0.226073082383 0)
(-0.0744407074655 0.224826589575 0)
(-0.0746603777765 0.223388359471 0)
(-0.0748487209539 0.221752414067 0)
(-0.0750029497006 0.219913033562 0)
(-0.0751200848607 0.217864957225 0)
(-0.0751969401595 0.215603457766 0)
(-0.0752301050591 0.213124396532 0)
(-0.0752159256919 0.210424262914 0)
(-0.0751504838993 0.207500205661 0)
(-0.0750295742863 0.204350055219 0)
(-0.0748486791768 0.200972335882 0)
(-0.0746029413152 0.197366266494 0)
(-0.074287134226 0.193531748474 0)
(-0.0738956301503 0.189469339944 0)
(-0.073422365499 0.185180214913 0)
(-0.0728608037759 0.180666106502 0)
(-0.0722038959595 0.175929233404 0)
(-0.0714440383727 0.170972208853 0)
(-0.0705730281227 0.165797931579 0)
(-0.0695820162678 0.160409458337 0)
(-0.0684614589637 0.154809857808 0)
(-0.0672010669617 0.149002045798 0)
(-0.065789754005 0.142988601861 0)
(-0.0642155848762 0.136771567648 0)
(-0.0624657241378 0.130352227542 0)
(-0.060526386979 0.123730872398 0)
(-0.0583827940636 0.116906547652 0)
(-0.0560191329075 0.109876787564 0)
(-0.0534185291277 0.102637338153 0)
(-0.0505630319598 0.0951818724325 0)
(-0.0474336197625 0.0875017028764 0)
(-0.044010232908 0.0795854978351 0)
(-0.0402718434825 0.071419010634 0)
(-0.0361965736549 0.0629848324128 0)
(-0.0317618772994 0.0542621821428 0)
(-0.0269448025928 0.0452267506761 0)
(-0.02172235789 0.0358506256637 0)
(-0.0160720149685 0.0261023647501 0)
(-0.00997243182007 0.0159474621693 0)
(-0.00340593346222 0.00535296429183 0)
(-0.0585550408639 0.244299301833 0)
(-0.0589466463733 0.245804703898 0)
(-0.0593436786821 0.247310356146 0)
(-0.0597463292345 0.248825996558 0)
(-0.0601545526585 0.250350230499 0)
(-0.0605682884589 0.25188120703 0)
(-0.0609874648035 0.25341709632 0)
(-0.0614119903964 0.254955942005 0)
(-0.0618438597407 0.256506660605 0)
(-0.0622828361251 0.258066867476 0)
(-0.062726354823 0.25962157874 0)
(-0.0631742047219 0.261168169448 0)
(-0.0636261379823 0.262703304291 0)
(-0.0640818655219 0.26422285015 0)
(-0.0645410691435 0.265722583262 0)
(-0.0650034013803 0.267198433693 0)
(-0.0654707422244 0.268659412373 0)
(-0.0659424709569 0.270100657015 0)
(-0.0664154681377 0.271502623573 0)
(-0.0668914522626 0.27286537077 0)
(-0.0673699232852 0.27419149915 0)
(-0.0678475366156 0.275458725385 0)
(-0.0683235433383 0.276660040682 0)
(-0.0687971249742 0.277787077299 0)
(-0.0692674191843 0.278831704999 0)
(-0.0697335163605 0.279786033811 0)
(-0.0701944446091 0.280641951052 0)
(-0.0706491675784 0.281391141421 0)
(-0.0710965802421 0.282025067692 0)
(-0.0715355050126 0.282534978313 0)
(-0.0719646879798 0.282911931448 0)
(-0.0723827949739 0.283146825079 0)
(-0.0727884073767 0.283230432524 0)
(-0.0731800175947 0.283153442549 0)
(-0.0735560241142 0.282906503632 0)
(-0.0739147260526 0.282480272031 0)
(-0.0742543171186 0.281865463326 0)
(-0.0745728788809 0.281052906653 0)
(-0.0748697130883 0.280029960055 0)
(-0.0751427756871 0.278788471544 0)
(-0.0753883822603 0.27732371187 0)
(-0.0756040949042 0.275628043457 0)
(-0.07578732049 0.273694065942 0)
(-0.0759352888338 0.271514647703 0)
(-0.0760450430384 0.269083151083 0)
(-0.0761134240027 0.266393511885 0)
(-0.0761370528629 0.263440299551 0)
(-0.076112311352 0.260218760807 0)
(-0.0760353201741 0.256724854984 0)
(-0.0759019152908 0.252955279993 0)
(-0.0757076220138 0.248907487571 0)
(-0.0754476267974 0.244579686311 0)
(-0.0751167466396 0.239970830944 0)
(-0.0747093960124 0.235080596402 0)
(-0.0742195512637 0.22990933522 0)
(-0.073640712448 0.224458016863 0)
(-0.0729658625811 0.218728147718 0)
(-0.0721874243448 0.212721670535 0)
(-0.0712972143201 0.20644084222 0)
(-0.0702863948952 0.199888089057 0)
(-0.069145424081 0.193065838533 0)
(-0.0678640035857 0.185976327128 0)
(-0.0664310256568 0.178621383643 0)
(-0.0648345194047 0.171002187856 0)
(-0.0630615975979 0.163119004601 0)
(-0.0610984052835 0.154970893798 0)
(-0.0589300720637 0.146555397522 0)
(-0.0565406704827 0.137868205962 0)
(-0.0539131837937 0.128902805262 0)
(-0.0510294874183 0.119650111702 0)
(-0.0478703497214 0.110098098624 0)
(-0.0444154593464 0.100231424981 0)
(-0.0406434882263 0.0900310771625 0)
(-0.0365322013743 0.0794740384113 0)
(-0.0320586260651 0.0685330012708 0)
(-0.0271992928505 0.0571761354025 0)
(-0.0219305570465 0.0453669133468 0)
(-0.0162290037677 0.0330639960028 0)
(-0.0100719780152 0.020221362028 0)
(-0.00343998527705 0.00679386458522 0)
(-0.059144659102 0.286189377662 0)
(-0.0595541505773 0.287972275655 0)
(-0.0599693221864 0.289756137056 0)
(-0.0603904038035 0.291551680411 0)
(-0.0608173521214 0.293357597684 0)
(-0.0612500975261 0.295171969376 0)
(-0.0616885520446 0.296992718405 0)
(-0.0621347387927 0.298829061039 0)
(-0.0625883982426 0.300678367521 0)
(-0.0630469116179 0.302524856792 0)
(-0.0635100719568 0.304365383294 0)
(-0.0639776279666 0.30619603274 0)
(-0.0644492858384 0.308012511666 0)
(-0.0649247281001 0.309810424288 0)
(-0.0654036137097 0.311585379544 0)
(-0.0658879470434 0.313346628843 0)
(-0.0663770956749 0.315088678734 0)
(-0.066867811559 0.316790632337 0)
(-0.0673595617491 0.318446488053 0)
(-0.0678540641132 0.320063700758 0)
(-0.0683502529956 0.321625737344 0)
(-0.0688448784915 0.323118305744 0)
(-0.0693371421048 0.324532648906 0)
(-0.0698261873241 0.325859679241 0)
(-0.070311112871 0.32709062198 0)
(-0.0707909579583 0.32821652411 0)
(-0.0712646991807 0.329228186298 0)
(-0.0717312478155 0.330116151548 0)
(-0.07218944695 0.330870705206 0)
(-0.0726380687779 0.331481895661 0)
(-0.07307581173 0.331939563357 0)
(-0.0735012973288 0.332233375628 0)
(-0.0739130666865 0.33235286615 0)
(-0.0743095765728 0.332287478464 0)
(-0.0746891949781 0.332026613281 0)
(-0.075050196088 0.331559679252 0)
(-0.0753907545785 0.330876146848 0)
(-0.0757089391233 0.329965604551 0)
(-0.0760040772099 0.328813568308 0)
(-0.0762741288941 0.327410455887 0)
(-0.0765153800976 0.325750928076 0)
(-0.0767254108381 0.323826169904 0)
(-0.0769016508687 0.321627609049 0)
(-0.0770413569429 0.319146936369 0)
(-0.0771416042662 0.316376348752 0)
(-0.0771992705999 0.313308629049 0)
(-0.0772110181138 0.309937206719 0)
(-0.0771732729962 0.306256201606 0)
(-0.0770822029945 0.302260459463 0)
(-0.0769336927921 0.297945578159 0)
(-0.0767233171244 0.293307923093 0)
(-0.0764463115422 0.288344630251 0)
(-0.0760975407393 0.283053595172 0)
(-0.0756714643724 0.277433446153 0)
(-0.0751621003188 0.271483499935 0)
(-0.0745629853334 0.265203698122 0)
(-0.0738671330951 0.25859452261 0)
(-0.0730669896631 0.251656888311 0)
(-0.0721543864103 0.244392011502 0)
(-0.0711204905587 0.236801252222 0)
(-0.0699557535251 0.228885929204 0)
(-0.0686498573876 0.220647105971 0)
(-0.0671916599403 0.212085346912 0)
(-0.0655691389882 0.203200442375 0)
(-0.0637693368086 0.193991102197 0)
(-0.0617783060536 0.184454617557 0)
(-0.0595810588451 0.1745864918 0)
(-0.0571615214325 0.164380041881 0)
(-0.0545024976085 0.153825973576 0)
(-0.0515856451431 0.142911935613 0)
(-0.048391470838 0.131622060575 0)
(-0.0448993514808 0.119936503901 0)
(-0.0410875899103 0.107830996395 0)
(-0.0369335174073 0.0952764297909 0)
(-0.0324136547974 0.0822384966305 0)
(-0.0275039423386 0.0686773975132 0)
(-0.0221800345002 0.0545475880024 0)
(-0.0164176088172 0.0397974084304 0)
(-0.0101925411391 0.0243682268933 0)
(-0.00348241711766 0.00819828277292 0)
(-0.059860183737 0.32498776742 0)
(-0.0602903819623 0.327038757908 0)
(-0.060726537265 0.329091718346 0)
(-0.061168937777 0.331158421158 0)
(-0.0616175279907 0.333237424869 0)
(-0.0620722218946 0.335326606659 0)
(-0.0625350451175 0.337435382896 0)
(-0.063005703771 0.339560707342 0)
(-0.0634815376652 0.341686077232 0)
(-0.0639623244622 0.34380804149 0)
(-0.064447787895 0.345922124804 0)
(-0.0649376308731 0.348023863318 0)
(-0.065431533448 0.350108820757 0)
(-0.0659291392009 0.352172345694 0)
(-0.0664325407708 0.354223968726 0)
(-0.0669410431844 0.356257551481 0)
(-0.0674512058272 0.358250788267 0)
(-0.0679624433031 0.360197172753 0)
(-0.0684764755161 0.362096710709 0)
(-0.0689927176268 0.363949039121 0)
(-0.0695075228967 0.365729514412 0)
(-0.0700200465924 0.367429133749 0)
(-0.0705293901946 0.369038081366 0)
(-0.0710346225659 0.370546823675 0)
(-0.071534764026 0.371945752749 0)
(-0.0720287800637 0.373224979917 0)
(-0.0725155786905 0.374374339257 0)
(-0.0729940073344 0.37538338333 0)
(-0.0734628502071 0.376241398648 0)
(-0.0739208258306 0.376937432763 0)
(-0.074366584448 0.377460327165 0)
(-0.0747987052034 0.377798754953 0)
(-0.0752156929795 0.377941262498 0)
(-0.0756159747893 0.377876314714 0)
(-0.0759978956208 0.377592343559 0)
(-0.0763597136272 0.377077799421 0)
(-0.0766995945538 0.376321204973 0)
(-0.0770156052736 0.375311210631 0)
(-0.0773071009364 0.374031772703 0)
(-0.0775720557316 0.372472168552 0)
(-0.0778067486605 0.370626778399 0)
(-0.0780087913825 0.368485901001 0)
(-0.078175649975 0.366040071182 0)
(-0.0783046210454 0.363280067765 0)
(-0.078392824315 0.360197169636 0)
(-0.0784371861199 0.356783232332 0)
(-0.0784344204847 0.353030745385 0)
(-0.0783810078096 0.348932872702 0)
(-0.0782731714233 0.344483484919 0)
(-0.078106851919 0.339677182699 0)
(-0.0778776791884 0.334509309529 0)
(-0.0775809420716 0.32897595238 0)