/*--------------------------------*- C++ -*----------------------------------*\
  =========                 |
  \\      /  F ield         | OpenFOAM: The Open Source CFD Toolbox
   \\    /   O peration     | Website:  https://openfoam.org
    \\  /    A nd           | Version:  7
     \\/     M anipulation  |
\*---------------------------------------------------------------------------*/
FoamFile
{
    version     2.0;
    format      ascii;
    class       volScalarField;
    location    "1";
    object      Co;
}
// * * * * * * * * * * * * * * * * * * * * * * * * * * * * * * * * * * * * * //

dimensions      [0 0 0 0 0 0 0];

internalField   nonuniform List<scalar> 
7540
(
5.43973286365
5.42814471224
5.41647018748
5.40461889539
5.39260753146
5.38042735323
5.36807577345
5.35556828192
5.34299127573
5.33034780036
5.31744727877
5.30424667124
5.29087318859
5.27437850052
5.45789435109
5.4465792089
5.43521216997
5.42368081593
5.41198174268
5.40011065363
5.3880771623
5.37590731049
5.36360023802
5.35112313539
5.3384343336
5.32554946165
5.31256065714
5.29693191713
5.48264511071
5.47153992972
5.46038419286
5.44905429442
5.43754808526
5.42587271476
5.41404778758
5.40207520308
5.38991946401
5.37756188085
5.36503131107
5.35236259574
5.3396255122
5.32468419801
5.51720132778
5.50610047427
5.49493715295
5.48359835837
5.47208944216
5.46042599906
5.4486164105
5.43663912419
5.42447969799
5.41215829483
5.39969964033
5.38711503975
5.37447967876
5.36002852979
5.55771615424
5.54649154151
5.53519248382
5.52372084429
5.51208376968
5.50029569937
5.48836413023
5.47628474335
5.46406472182
5.45171615123
5.43924150214
5.42664488822
5.41401711266
5.39991384742
5.60636708799
5.59476581856
5.58308570041
5.57125039021
5.55926303027
5.54714194136
5.53490479856
5.52256306642
5.51011756478
5.4975640839
5.48489876795
5.47212950564
5.45935966554
5.44543432335
5.65976703535
5.64757081838
5.63529649154
5.62290174601
5.61040133535
5.59780958587
5.58513551356
5.57238395354
5.55955270607
5.54663561739
5.53362990092
5.52055488324
5.50753140999
5.49368184141
5.71847223048
5.7053639063
5.69222030886
5.6790084533
5.66575735567
5.65246147143
5.63912204907
5.62573057179
5.6122933981
5.59881727781
5.5853077875
5.57179877362
5.55841374374
5.54452552875
5.77945940842
5.76510737613
5.75080159904
5.73649153776
5.72219618184
5.70790975066
5.69363053324
5.67934573659
5.66507734814
5.65086042872
5.63671720263
5.62266743742
5.60881537385
5.59476413495
5.8410150735
5.82495755485
5.80903519376
5.79319744274
5.77745448342
5.7618044755
5.74624575145
5.73080738482
5.71552163691
5.70042074784
5.68552785796
5.67083429126
5.65643824327
5.64215470428
5.90014745705
5.8818077666
5.86370709905
5.84581251845
5.82813003647
5.81065908197
5.79344566288
5.7765631634
5.76002254965
5.74382094361
5.72796639113
5.71245033519
5.69737187108
5.68274832689
5.94980313399
5.9284010182
5.90743817979
5.88688762914
5.86675615477
5.84709447157
5.82798863719
5.80946757625
5.79150882911
5.77410085685
5.75724335883
5.74092921851
5.72525444683
5.71045520478
5.9870445789
5.96178203341
5.93722816746
5.91337077187
5.89026356992
5.86800041657
5.84661800217
5.82609247294
5.80640721439
5.78756288735
5.76956357076
5.75243499211
5.7362926538
5.7215608062
5.99220120355
5.96206280229
5.93325498105
5.90581008657
5.87975573864
5.85499358081
5.83143080204
5.80906521479
5.78789564063
5.76798415828
5.74932356479
5.73193083137
5.7159205667
5.70183518266
5.96491506511
5.929779782
5.89640073694
5.86470859764
5.83487395121
5.80699004158
5.78109913738
5.75714654813
5.73501416298
5.71471458148
5.69627081099
5.67964705519
5.6648847163
5.65257429369
5.85795028602
5.81633036983
5.77794347553
5.74261786348
5.71021628889
5.68057207697
5.65362769981
5.62932862673
5.60764487257
5.5885784906
5.57206352725
5.557983124
5.54633505761
5.53781627892
5.67909253388
5.63321032375
5.59164252545
5.55422147356
5.52082131298
5.49133980224
5.46572279752
5.44388569831
5.42572725672
5.41110386806
5.39979609464
5.39160376647
5.38644242327
5.38501432715
5.34600365832
5.30060166108
5.26067599385
5.2259930877
5.19631806858
5.1714696503
5.15131392149
5.13562745582
5.12419767139
5.11675275993
5.11294755801
5.1125194095
5.11534898302
5.12224473968
4.85062066884
4.81655822632
4.78825124426
4.76554463991
4.74835152946
4.73662617924
4.7303007208
4.72929689214
4.73362928249
4.7432602774
4.75814551966
4.77823433589
4.80355772776
4.83477853376
4.04576235088
4.04822581149
4.05540013081
4.06735777349
4.08423350359
4.10594052586
4.13220635029
4.16274460986
4.19699442771
4.23413269385
4.27347615082
4.3143473249
4.35637386191
4.40024758912
7.12382566828
6.91917059298
6.72567358409
6.53725601718
6.35375686307
6.17484431315
6.00038577479
5.83034120325
5.66460559639
5.50310569416
5.34575201081
5.19249019453
5.04321204981
4.89766732912
4.75572364772
4.61733739492
4.48242982173
4.35094703279
4.22287297858
4.09813694452
3.97657036976
3.85808102815
3.74251782106
3.62975796291
3.51981656923
3.41266989909
3.30825349636
3.20648660209
3.10730006575
3.01063159694
2.91642131171
2.82461207095
2.7351496649
2.64798303788
2.56306449253
2.48035003164
2.39979970261
2.32139927677
2.24511734911
2.17088428567
2.09867862205
2.02851423102
1.96039188793
1.89431661303
1.8303061706
1.76839116099
1.70861722518
1.65104718798
1.59576426588
1.5428758919
1.49251652292
1.44485209053
1.40008403281
1.3584531094
1.32024161814
1.2857854487
1.25545208996
1.22966964774
1.20913035777
1.1996982352
1.19696598321
1.20137970334
1.21326543102
1.23279284483
1.25964333401
1.29310559487
1.33231848332
1.37565230408
1.42048688467
1.46372392225
1.50190572826
1.53142450066
1.54892013523
1.55179377948
1.53869373857
1.51747516802
1.48927344338
1.44733429833
1.39456613867
1.33527840357
7.14856495609
6.94456632039
6.75104326315
6.56250533961
6.37879696256
6.19972298356
6.02520029114
5.85516132158
5.68949197018
5.52808728264
5.37084891931
5.21764976055
5.0683631002
4.92285124312
4.78101070384
4.6427818137
4.50808032394
4.37681470665
4.24890267919
4.12431021893
4.00287891967
3.88451694312
3.76916130789
3.65668952642
3.54706718052
3.44023226681
3.33611334125
3.23463293941
3.13572126675
3.03931265721
2.94534321057
2.85375131173
2.76447779964
2.67746612825
2.59266252441
2.51001626818
2.42947998262
2.35103642746
2.27464257873
2.20020715601
2.12769863487
2.05712479288
1.98847353392
1.92173402596
1.85690628029
1.79400069133
1.73303996417
1.67406103834
1.61711735741
1.56228203246
1.50965025035
1.4593466695
1.41152489444
1.36638663612
1.32416537117
1.28517245269
1.24976293206
1.21835606849
1.19194514789
1.18783422675
1.19155462788
1.20369804056
1.22461443476
1.25432440212
1.29223993705
1.33723002441
1.38756098724
1.4404820527
1.49257531647
1.54000406463
1.57836993838
1.60327902815
1.61108221476
1.5996346721
1.56882525963
1.54584862432
1.52951464807
1.49576402022
1.44695061185
1.38860817687
7.18042247943
6.97683065217
6.78307452634
6.59420949251
6.41018003322
6.23085668639
6.05615678967
5.88597582473
5.7202037187
5.55873070604
5.4014265545
5.24814412
5.09876198052
4.95319130688
4.81135488867
4.67317118603
4.53854252253
4.407357368
4.27950991168
4.1549653563
4.03360895375
3.91533132473
3.80007799748
3.68776328015
3.57832462686
3.4716782511
3.36774132525
3.26643538551
3.16768794429
3.07142853847
2.97758823816
2.88609993728
2.79689838979
2.70992030673
2.62510442599
2.54239168874
2.46172541269
2.38308287941
2.30640966553
2.23159118227
2.15858018059
2.08737401227
2.01794359109
1.9502575781
1.88429306925
1.82003475082
1.75747655944
1.69662345095
1.63749382104
1.58012264988
1.52456283607
1.47089680045
1.41922916704
1.36971346585
1.32253358888
1.27794480707
1.23625286624
1.19787683533
1.16366327422
1.16374948411
1.1743642566
1.1951896993
1.22608310478
1.2663502339
1.31493393453
1.37059696913
1.43176768904
1.49591442212
1.55909356991
1.61600192077
1.6604348429
1.68611011921
1.68789688748
1.66330465345
1.61343751666
1.59087051566
1.58590553248
1.55802003689
1.50985060748
1.44887184005
7.22252027483
7.01862973816
6.82411419166
6.63450541234
6.44980346503
6.26989477296
6.09466054454
5.92398168304
5.75774959392
5.59583509835
5.43809252168
5.28439690299
5.13465265388
4.98877808789
4.84668690364
4.70827759625
4.57343558857
4.44205119263
4.3140502226
4.18934479087
4.0678616427
3.94951246784
3.83419503165
3.72184370833
3.61237773081
3.50571037972
3.40175490926
3.30043042055
3.20165950898
3.10536609023
3.01147533084
2.91991368552
2.83060882227
2.74348964054
2.65848623302
2.5755299548
2.49455343396
2.41552648122
2.33838235494
2.26298210245
2.18925957819
2.11719820696
2.04674835493
1.97785415408
1.91046514724
1.84453454718
1.78002056153
1.71688746715
1.65510794141
1.59466580797
1.53555952361
1.4778090855
1.42145506106
1.36657377015
1.31326522731
1.26171996638
1.21221340674
1.165310867
1.12168801607
1.1212417216
1.13626672597
1.16028888892
1.19266683422
1.2338788723
1.28529652996
1.34790688742
1.42085022416
1.50095537031
1.58241276771
1.65750548123
1.71746072957
1.75344005141
1.7580285942
1.7272704969
1.66229486602
1.64286965312
1.65637599355
1.63632168451
1.5861425167
1.51649090451
7.27078158706
7.06631862581
6.87091089318
6.68048706292
6.49502971693
6.31441620088
6.13852334178
5.9672339764
5.80041024483
5.63790698369
5.47961426655
5.32543573147
5.17527131269
5.02902538377
4.88659482145
4.74786315835
4.6127173038
4.48106607668
4.35285051089
4.22795821846
4.10629766917
3.98780302688
3.87237745426
3.75993799487
3.65039116563
3.54364630695
3.43961552334
3.33821507632
3.23936240302
3.14297572686
3.04897397189
2.9572766949
2.86780395789
2.78047627407
2.69521447341
2.61193965201
2.53057304791
2.45107600651
2.37336858523
2.29728693627
2.22274497752
2.14971051928
2.0781114353
2.00786480541
1.93888930448
1.87110227808
1.80442034227
1.73876065036
1.67404078492
1.61018333318
1.54711410353
1.48475944016
1.42304796689
1.36192367148
1.30142150817
1.24172755562
1.18311792764
1.12595435623
1.07029623585
1.04855652455
1.05439633504
1.0676754306
1.09342661222
1.13750203854
1.20307803603
1.2887936135
1.38941374022
1.49705572808
1.60262065556
1.69672971943
1.76985021799
1.81267699744
1.81727035654
1.77909354139
1.70005447075
1.67376648186
1.72003524214
1.71797727059
1.67097389223
1.59102873902
7.32652778027
7.12113481143
6.92453550012
6.73298304092
6.54645877425
6.3648402057
6.18800979957
6.01582404044
5.84812509182
5.68479686119
5.5257599814
5.37092105457
5.22016405983
5.07337193811
4.93042795695
4.79121808472
4.65564724398
4.52364390781
4.39510732475
4.2699418997
4.14805024498
4.02933868428
3.91373519407
3.80114139332
3.69145911834
3.58459428938
3.48045603065
3.37895560624
3.2800047598
3.18351558731
3.08940034652
2.99757132494
2.90794064167
2.82042010519
2.73492096928
2.65135374965
2.56962793764
2.48969593749
2.41146410166
2.33474314865
2.25942626915
2.18546448037
2.1127614338
2.04120484596
1.97067942757
1.90106328937
1.83222758119
1.76403794461
1.69635007486
1.62900018597
1.56180229847
1.49454837431
1.4270438894
1.35919551111
1.29105405639
1.2227024858
1.15387149346
1.08353110397
1.01025986559
0.945297938032
0.918142906895
0.935740849759
0.985991283151
1.06971100262
1.18008308603
1.30673528431
1.43956659199
1.56936473731
1.68814247915
1.78781629138
1.85974105547
1.89529936823
1.88750953116
1.8327193357
1.73191208471
1.67362846526
1.75836516203
1.78297459577
1.7496565813
1.66429665353
7.38595857597
7.17953730554
6.98167797329
6.78891142456
6.60124138768
6.41856241496
6.24072462114
6.06756499222
5.89895800815
5.73481565521
5.57504527894
5.41953580915
5.26816389208
5.12080356229
4.97733740436
4.83766718471
4.70170695317
4.5693801964
4.44056295144
4.3151585435
4.19308496832
4.07423240224
3.95851345214
3.84582782396
3.7360760544
3.6291619496
3.52499066786
3.42346781316
3.3244990981
3.2279902022
3.13384653856
3.04197308373
2.95227412289
2.86465303684
2.77901196588
2.69525151078
2.61327030095
2.53301301096
2.45437369848
2.3771389442
2.30118278273
2.22644118609
2.1527950744
2.08010441046
2.00822218381
1.9369897968
1.86623402967
1.79575860989
1.72533595425
1.65469124261
1.58352108413
1.51157844681
1.43871445782
1.36486308625
1.28962322589
1.21182494883
1.12958285898
1.04146188789
0.948621249552
0.856025948946
0.803579667422
0.872609409545
0.981412758914
1.11600787059
1.26230882029
1.41019755238
1.55320197682
1.6865049823
1.80472584195
1.90031727233
1.96392517172
1.98594069817
1.95846272669
1.87733093983
1.74454020813
1.63829091931
1.7646551622
1.82309587149
1.81062733712
1.7261475541
7.4487942365
7.2411036633
7.0418070205
6.84767949838
6.65871620127
6.47481765691
6.29583221561
6.12162008777
5.95207649149
5.78709794356
5.62656834347
5.47036379927
5.31835759978
5.17042736694
5.02646902242
4.88639151674
4.75009481026
4.61746828476
4.48842261939
4.36286384351
4.24068737568
4.12179071598
4.00606383748
3.89340236512
3.78370453089
3.67687021669
3.57279958838
3.47139273209
3.37254951813
3.27616944375
3.18215140425
3.09039351195
3.00079281721
2.91324505863
2.82764427196
2.74388241374
2.66184881857
2.58148256147
2.50266773988
2.42516870265
2.3488429115
2.27361509652
2.199348745
2.12588342021
2.05304908426
1.9806586323
1.90849182871
1.83627298394
1.76367266901
1.69035233428
1.61603815906
1.54053934873
1.46354380473
1.38422782407
1.30099065199
1.21200703335
1.11648735903
1.01609864625
0.914934125735
0.819159434616
0.789544735834
0.915697055433
1.06388809523
1.21838451684
1.37024051387
1.51628656516
1.65511971058
1.78450231402
1.89885391431
1.98910866137
2.04393392768
2.05197519923
2.00447620303
1.89780889589
1.73602174916
1.57809939901
1.73754762245
1.82989001421
1.84363544049
1.76636116519
7.51073330961
7.30172505447
7.10101830166
6.90558005489
6.7153631417
6.5302770053
6.35022539046
6.17508196707
6.00472299976
5.83901938952
5.67784631921
5.52107627531
5.36858275646
5.22025728033
5.07600382734
4.93571569289
4.79926765857
4.66654578283
4.5374852737
4.41199186831
4.28993961541
4.17121841245
4.05571236686
3.94331161215
3.83390995612
3.72740162626
3.62368068158
3.52264091469
3.42417573511
3.32817804637
3.23454005215
3.14315310799
3.0539074741
2.96669209521
2.88139422869
2.79789906219
2.71608910961
2.63590135091
2.55721397703
2.47977339178
2.40342757974
2.32809911765
2.2536452786
2.17989516788
2.10665807292
2.03370815348
1.96076529686
1.88751215223
1.81362622284
1.73877328117
1.66267921708
1.58488484663
1.50453720199
1.42028704079
1.33052648752
1.23417521729
1.13140053393
1.02459521237
0.917500139168
0.81472208076
0.844053078906
0.995468376517
1.15159992436
1.30422038952
1.45062418127
1.59070736516
1.72424301384
1.84886135638
1.95806397397
2.04115736005
2.08517391328
2.07764340202
2.0096011199
1.87836086004
1.68941245064
1.48515412482
1.6743090188
1.79894439459
1.84220561803
1.77858112357
7.56888826309
7.35861633218
7.15657947254
6.95992485122
6.76862897877
6.58259623822
6.40172533419
6.22588221419
6.05492975713
5.88873415099
5.72716623389
5.57009758854
5.41741230213
5.26900809351
5.12477455622
4.98457642636
4.84828727937
4.71582411273
4.58710227117
4.46200218432
4.34039712066
4.22216756982
4.1071967661
3.99537049324
3.88657608923
3.7807009333
3.67763234354
3.57725747654
3.47946324757
3.38413627141
3.29116272772
3.2004282732
3.11181785442
3.02521554403
2.94050420714
2.85756517884
2.7762776284
2.69658143702
2.61835450924
2.54132992167
2.46535309907
2.39035391031
2.31619381457
2.24268703107
2.16964470436
2.0968032254
2.02390074962
1.95063395073
1.8767210113
1.80183502847
1.72552303901
1.64713680956
1.56577689194
1.4801958734
1.38867396955
1.28926598109
1.1804024797
1.06245801405
0.938751480572
0.815436598579
0.900970556533
1.05679840859
1.21176029196
1.36081932743
1.50215397507
1.6360240627
1.76312964768
1.88087343147
1.98201641255
2.0545516369
2.08444251943
2.05861408463
1.96874157414
1.81374733875
1.60057303916
1.35746751365
1.57370798387
1.7290366678
1.80372885988
1.75776753617
7.61797622454
7.40666863911
7.20356913473
7.00601275251
6.81400203658
6.62741031371
6.44609775795
6.26991832042
6.09874234612
5.93244093821
5.77087664759
5.61393634828
5.46151087896
5.31347829853
5.16970174363
5.03004422131
4.89440182563
4.7626859929
4.6347809017
4.51055369969
4.38987595768
4.27262394093
4.15867585748
4.04791052364
3.94020682589
3.83544352387
3.73349931527
3.63425282514
3.53758266667
3.44336753643
3.35148625147
3.26181784676
3.17424157575
3.08863693301
3.00488348231
2.9228607237
2.84244744849
2.7635914607
2.68617788024
2.60993886296
2.53472172913
2.46048499546
2.3870936202
2.314400735
2.24223752306
2.17038456775
2.09855034601
2.02641076736
1.95354896833
1.87964484119
1.8045196904
1.72806529471
1.64970613442
1.56743601028
1.47713424579
1.37331096339
1.25177870992
1.11315369019
0.964089148605
0.814416957421
0.936975748514
1.09307383616
1.24730922681
1.39413047638
1.53064504957
1.65721936291
1.77523501308
1.88273534274
1.97223400904
2.03050811381
2.04326854099
1.99686547047
1.88423379249
1.70710225547
1.47375987534
1.20368290257
1.43840168248
1.62201146941
1.72930686262
1.70422887967
7.64997764488
7.43830445681
7.23492085163
7.03725899216
6.84530576058
6.65891530243
6.47794473187
6.30223310447
6.13164250298
5.96605361849
5.80533671582
5.64937939245
5.49805364929
5.35121151137
5.20871336696
5.07044375323
4.93629121477
4.80612918658
4.67982118838
4.5572284159
4.43821584087
4.32265118353
4.21040284284
4.10133960067
3.9953306519
3.89224544616
3.79195382445
3.69432623232
3.59923395024
3.50654933933
3.41614605019
3.32789926862
3.24168584703
3.15738436775
3.07487525712
2.99404049318
2.9147631484
2.83700517117
2.7606738879
2.68551430665
2.61137696408
2.53825444289
2.46604198283
2.3946157938
2.32382115874
2.25348514582
2.18331038178
2.11289902191
2.04194590096
1.97054238042
1.8992821667
1.82866072443
1.75757848474
1.68164424267
1.59292137559
1.48249729563
1.34508002481
1.1828700929
1.00551188047
0.825831319129
0.957316174727
1.11439549037
1.27008423001
1.41524035362
1.54512119884
1.66132230782
1.76641505805
1.85960284881
1.93371965712
1.97393584492
1.96780470513
1.90001066355
1.7650492907
1.5673688918
1.31786587206
1.03443822201
1.27486057968
1.48449878477
1.62396767032
1.62345650129
7.66005150653
7.44898071668
7.24632445575
7.04952615211
6.8585592226
6.67328656144
6.49356965238
6.31924178428
6.1501585727
5.98620781516
5.82727813151
5.6732125027
5.5238467097
5.37903139634
5.23865447512
5.10259095827
4.97070958434
4.84289400081
4.71900042859
4.59884425553
4.482311547
4.36925551835
4.2595297374
4.15298791551
4.04948370484
3.94887143195
3.85100639137
3.7557450812
3.66294546789
3.57246760973
3.48417439069
3.39793205704
3.31361043929
3.23108450034
3.15023499666
3.07094639002
2.99311325663
2.91668296119
2.84160018869
2.76766365612
2.69476136308
2.62287816633
2.55200269552
2.48208269861
2.4130062381
2.34453773021
2.27631293203
2.20801346953
2.13977313633
2.07254730071
2.00784041112
1.94627415556
1.8852600344
1.81723692193
1.73053475507
1.61373402137
1.46142636011
1.27743313101
1.07330102512
0.863721315262
0.975187177175
1.13436787458
1.29034951146
1.43155430807
1.55313509789
1.65591871449
1.74422738056
1.81916797226
1.87432452069
1.89390345482
1.86763915292
1.77759276359
1.62362934265
1.41101713683
1.15105845184
0.864187562936
1.10003209936
1.32999746828
1.49635116989
1.52162687533
7.62952604972
7.42076220921
7.22059276175
7.02649850084
6.83841973971
6.65619745535
6.47968540168
6.30872503598
6.14318009943
5.98290316537
5.82774870444
5.67754316837
5.53212855266
5.39137458443
5.25516553251
5.12333277291
4.99566653917
4.87200333172
4.75221309608
4.6361064117
4.52353396954
4.41434556859
4.30838027902
4.20548502225
4.10549659237
4.00825579527
3.91360276223
3.82138064605
3.73143701034
3.64362480783
3.55780356325
3.47383969754
3.39160969509
3.31099724408
3.23189687466
3.15420883454
3.07784708616
3.00273998762
2.92883598676
2.85601810157
2.78424145107
2.71356234877
2.64400483765
2.57555971544
2.50809851176
2.44132759931
2.37490202423
2.30880326692
2.24388075934
2.18207423676
2.12560152415
2.0747701259
2.02518995074
1.96638530998
1.88384000332
1.76454268797
1.60291708805
1.40315617086
1.17689320154
0.939168800918
1.00106531172
1.16097401243
1.31555399451
1.45145093239
1.56179527983
1.64780607106
1.7160680546
1.76984077246
1.80392242938
1.80234084734
1.75262505957
1.64031642203
1.47058311333
1.2482272886
0.9829054284
0.695029013696
0.918670034007
1.1626600324
1.3548935843
1.40848296279
7.56138927722
7.35712583958
7.16157646282
6.97219685958
6.78889586305
6.61150694885
6.43991112537
6.27398152661
6.11357177094
5.95852233629
5.80864669297
5.66376809622
5.52374839516
5.38844721874
5.25769080368
5.13129253079
5.00904870219
4.89078190437
4.77630580893
4.66543649182
4.55801109221
4.45387692176
4.3528663205
4.25481845095
4.15955209339
4.06688888474
3.97665217791
3.8886477925
3.80269176226
3.71860466159
3.63621567839
3.55536405869
3.47590262302
3.39770439479
3.32066082652
3.2446956669
3.16975005689
3.0957604535
3.0226931669
2.9505529373
2.8794176012
2.80942367932
2.74067559804
2.67318667585
2.60678737484
2.54114430567
2.47602498691
2.41184182234
2.35022153393
2.29398381887
2.24583480627
2.20568270006
2.16772237667
2.11946057994
2.04455870174
1.92892420192
1.76604182101
1.55887290967
1.3175358403
1.0564073597
1.04016077684
1.19767672986
1.34782573199
1.4759462511
1.57376719608
1.64208590865
1.68823362182
1.7184018069
1.72902228199
1.70588672584
1.63493594542
1.50605422979
1.32241775306
1.09097695954
0.823299056653
0.540895418319
0.754253200883
1.00365268888
1.21023230869
1.29220832587
7.40870734842
7.21329900943
7.02675666857
6.84651090219
6.67246522048
6.50446071551
6.34235149138
6.18596507857
6.03512412036
5.88965150159
5.74934628226
5.61403974179
5.48357285877
5.35775388281
5.23636016198
5.11919353649
5.00605042764
4.89671982375
4.79097696731
4.68858181867
4.58929931609
4.49290861956
4.39919730448
4.30796698868
4.21901939178
4.13216105552
4.04723060382
3.96404742297
3.88244320553
3.80225912454
3.7233452873
3.64556397684
3.56878513765
3.49288974138
3.41778748069
3.34340924176
3.26966391378
3.19647733743
3.12385949007
3.05190035001
2.98076001113
2.91065159576
2.84176836071
2.77416988222
2.70769787613
2.64206178695
2.5772213747
2.51403084869
2.45478084738
2.40296122169
2.36163120353
2.33049178271
2.3030275537
2.26600344851
2.20157653187
2.0957423257
1.93937135002
1.73312049768
1.48500188499
1.20799683692
1.09022888746
1.24264034046
1.38605958558
1.50565662434
1.59095557958
1.64132427766
1.66481889458
1.67041183897
1.65782748387
1.61486194478
1.52622872034
1.38393038138
1.19122190388
0.957362459156
0.694186863804
0.421084282163
0.617684075332
0.864992292085
1.07654467557
1.18286693438
7.21119214581
7.02873742997
6.85504419482
6.687415328
6.5257438204
6.36983675102
6.21950133703
6.0745192154
5.93468469804
5.79985789336
5.66990495621
5.54470628646
5.42413462205
5.30805995896
5.19634009112
5.08879459033
4.98523937732
4.88548781298
4.78932990609
4.69652213508
4.60679910153
4.51988271271
4.4354865657
4.35333500706
4.27316047144
4.19461898096
4.11740780904
4.04131081874
3.96603882566
3.89133955287
3.81702458747
3.74295218282
3.66902106606
3.59519268199
3.52148967582
3.44790727703
3.37441928956
3.30106357291
3.22796611331
3.15531552767
3.08335719881
3.01237344873
2.94260686392
2.87412646775
2.80677055358
2.74029832788
2.6748530761
2.61163915137
2.55340328958
2.5040652401
2.4669411936
2.44189726124
2.42250773123
2.3953336858
2.34302199704
2.25151366111
2.10864943293
1.91220732182
1.66718596754
1.38411797514
1.14508516896
1.28898480447
1.42558225492
1.53833879047
1.61274839815
1.64700288053
1.64890714039
1.6304356727
1.59542021073
1.5344383343
1.43233652575
1.28079516005
1.08325913235
0.850953020962
0.596849951468
0.338213156325
0.516509690541
0.754332136607
0.963815802726
1.08875100156
6.86889941436
6.70372370928
6.54714482302
6.39652960135
6.25184871267
6.11302625653
5.97994629368
5.85251077111
5.73063560325
5.61424126209
5.50319451889
5.39734705724
5.29650802953
5.20042745879
5.10885198925
5.02150665851
4.93807440423
4.85818575214
4.78150757212
4.70762817092
4.63613991832
4.56662158006
4.49861045616
4.43166868128
4.36554502574
4.29971759152
4.23370428577
4.16726396816
4.10010142293
4.03194961584
3.96262020369
3.89201939086
3.82006984348
3.74673588215
3.67207845639
3.59613754523
3.5190282719
3.44099557597
3.36237093153
3.28359177163
3.20520716973
3.12782938015
3.05196919185
2.97791243982
2.90565595774
2.83507006986
2.76641028933
2.70102137024
2.64177841679
2.59274539077
2.55730905996
2.5352729308
2.52197215433
2.50175335613
2.46074483769
2.38377835084
2.25713624757
2.07518550184
1.83984766021
1.55976567034
1.25289360051
1.33133805901
1.46486803754
1.57228890038
1.63806144992
1.65861560279
1.64097000314
1.6000098704
1.54402757584
1.46733290618
1.35569110101
1.19986147168
1.00269529024
0.77589008226
0.534523659546
0.291845103854
0.452840323676
0.674931685267
0.876421284826
1.01369576485
6.51957819607
6.38911763159
6.26690588883
6.14962226897
6.03676363578
5.92794635255
5.82272228989
5.7206921331
5.62159497779
5.52529793554
5.43175073421
5.34098191466
5.25311973119
5.16834597482
5.08683303109
5.00871939193
4.9341090909
4.86302076979
4.79545834867
4.73129909139
4.67031614143
4.61217611724
4.55637296059
4.50223011228
4.44937937077
4.39709006674
4.34459098683
4.29126037357
4.23651803753
4.17982024409
4.12063908649
4.0585283112
3.99316598444
3.92430063318
3.85190907056
3.77614267339
3.69729426118
3.61560367507
3.53146261599
3.44548109973
3.35844285004
3.27128380986
3.18497134943
3.10027363895
3.01765911451
2.93746254986
2.8603832762
2.78816417135
2.72352196867
2.67048104539
2.63235683276
2.60858304252
2.5966823946
2.58051902075
2.54828045646
2.48415307588
2.37458969287
2.20974584891
1.98972465539
1.72055775798
1.41475487251
1.36863886409
1.49975763543
1.60324762017
1.66360004806
1.67381003775
1.64010955548
1.57938989822
1.50431933881
1.41385198658
1.29575702737
1.13962435847
0.947080287431
0.729235348262
0.500826296174
0.275216575692
0.423986542961
0.625614179462
0.814403702592
0.957346421286
5.95614525522
5.8446295284
5.73924455862
5.63712469483
5.53855600022
5.44398210524
5.3537717602
5.26818275741
5.18727494714
5.11093642128
5.03901293245
4.97127432954
4.90747429621
4.84736072681
4.79075819682
4.73754695662
4.68756586457
4.64062553826
4.5964821606
4.55482550454
4.51528679785
4.47748991237
4.44099555957
4.40522585456
4.36979593731
4.33416762719
4.29774316638
4.25984593552
4.21978254182
4.17697757166
4.13097355024
4.08141081112
4.02821660659
3.97129840033
3.9107151879
3.84645008839
3.77834133541
3.70632817494
3.63038469004
3.55063808861
3.46752641022
3.3817635583
3.29429954699
3.20609857534
3.11800910929
3.03095894779
2.94628613846
2.86659968386
2.79519369002
2.73620032602
2.69314704346
2.66569711076
2.65087901921
2.63584564636
2.60875159684
2.55367447766
2.45936513267
2.31300150714
2.11219880834
1.85941061626
1.56386718494
1.39795122116
1.52898769204
1.63292446055
1.69220683447
1.69609941462
1.64908743106
1.57195238435
1.48036992882
1.37762410758
1.25435916658
1.10002227721
0.913486177376
0.70561389127
0.491601685651
0.285380730903
0.42731428536
0.60478374708
0.778783430708
0.918080263637
4.47685829423
4.43443799948
4.39983187711
4.37340268715
4.35295239312
4.33735695834
4.3262277154
4.31787964634
4.31192259207
4.30765751002
4.30608427396
4.30842518878
4.33546218411
4.38908694023
4.3459144597
4.30932583638
4.27853104307
4.25114489109
4.22693433337
4.20393773446
4.18012200536
4.15606362216
4.13270923932
4.11245444259
4.09769676261
4.11125104491
4.19782389462
4.15845017114
4.12244932701
4.08822182441
4.05415001228
4.02015587906
3.98294089999
3.9429597534
3.90185145672
3.86246285476
3.82806838411
3.80218062208
3.80762179233
3.99181690785
3.95025087473
3.90758138762
3.86245026496
3.81458742097
3.76471660356
3.71065888454
3.65310783791
3.59813918102
3.54909598048
3.50971567854
3.48353532979
3.49233855235
3.75638546269
3.70475817541
3.64820389488
3.58689301835
3.52240918109
3.45597861295
3.38860412675
3.32330885262
3.26550820744
3.21864336521
3.1861059308
3.17024501992
3.18906774307
3.4714629018
3.40515143777
3.33327399595
3.25845588926
3.18444010489
3.11217373362
3.04235487744
2.98148913991
2.93311336787
2.8982209936
2.87908225792
2.87932892939
2.91135322739
3.1283147954
3.05136234883
2.97222811521
2.89510094118
2.82438828661
2.75922792593
2.7016731737
2.65606020625
2.62398879022
2.60639359776
2.601587013
2.61197348482
2.65153185008
2.74134684237
2.6670134766
2.59555006821
2.53192776317
2.478428278
2.43231020442
2.39377585971
2.36693418857
2.34981121802
2.34327974569
2.34684985311
2.36190999558
2.40181943666
2.34571890125
2.29056343998
2.24191047107
2.20361774077
2.17356931115
2.14934802643
2.12925401438
2.11521977481
2.10675204678
2.10442310142
2.10893148123
2.12258792719
2.15755519008
1.98295611015
1.95831438105
1.94018413776
1.92914311077
1.92114455797
1.91269835915
1.90370246463
1.89524409039
1.88810363919
1.88374325985
1.88451970597
1.89367501257
1.92168872449
1.68242479928
1.69011130177
1.69975732097
1.70988942536
1.71613080193
1.71595621494
1.71047561007
1.70156123233
1.69114043211
1.68201829227
1.67813104033
1.68245913736
1.7033933336
1.4535705058
1.4861746857
1.51489289992
1.53793820325
1.55110950302
1.55352936884
1.54761510411
1.53597922114
1.52144703184
1.50804390469
1.50045833361
1.50054450171
1.51499247619
1.28827046806
1.33647150865
1.37684111889
1.40694231533
1.42344798938
1.42697300317
1.42053823599
1.40711852786
1.39018233722
1.37448311942
1.36463823517
1.3614739772
1.37043578008
1.17145650634
1.22929422183
1.27894581589
1.31571642639
1.33665156933
1.34329404063
1.3388379777
1.3263464076
1.3097282821
1.29444341393
1.28469078164
1.27984886169
1.28412682374
1.0915907608
1.16016224616
1.21954344424
1.2657076935
1.29458112983
1.30816623253
1.30957227402
1.30198459179
1.29000744805
1.27959730412
1.27347247783
1.26965346933
1.27188040729
1.04273832451
1.1267258317
1.19786238176
1.25495014355
1.2952473948
1.31933036249
1.33067805586
1.33283091116
1.33130957251
1.33222547214
1.33598274135
1.3399850078
1.34785570941
1.00766335575
1.11400739651
1.20159846991
1.27109675011
1.32130113492
1.35544332725
1.37848841328
1.39463370394
1.41056968192
1.43287652142
1.45902100261
1.48667798394
1.51991980359
0.950409147835
1.07866976588
1.18181370574
1.2598201589