/*--------------------------------*- C++ -*----------------------------------*\
  =========                 |
  \\      /  F ield         | OpenFOAM: The Open Source CFD Toolbox
   \\    /   O peration     | Website:  https://openfoam.org
    \\  /    A nd           | Version:  7
     \\/     M anipulation  |
\*---------------------------------------------------------------------------*/
FoamFile
{
    version     2.0;
    format      ascii;
    class       surfaceScalarField;
    location    "1";
    object      meshPhi;
}
// * * * * * * * * * * * * * * * * * * * * * * * * * * * * * * * * * * * * * //

dimensions      [0 3 -1 0 0 0 0];

internalField   nonuniform List<scalar> 
14892
(
0.314543332603
-0.0245149385817
0.318510935259
-0.024812761368
0.3225392663
-0.0251368175457
0.326556225289
-0.0254646178588
0.330560823561
-0.0257907352781
0.334552437853
-0.0261119404522
0.338530027086
-0.0264274728993
0.342476196736
-0.0267267113291
0.346325333596
-0.026978411601
0.350072136339
-0.0271841106418
0.353874133363
-0.0274119743556
0.357813064318
-0.027694184295
0.361789512113
-0.0279960830599
-0.0282694017141
0.365481304229
0.310947081983
-0.0469666370399
0.314900170923
-0.0475682558378
0.318868356543
-0.0481846676616
0.322826916846
-0.0488009900885
0.326774881496
-0.0494121602479
0.330711320886
-0.050015235717
0.334618850413
-0.050597128893
0.338447962081
-0.0511213947907
0.342190421233
-0.0515812445837
0.345946969576
-0.0520460421637
0.349802686624
-0.0525758471244
0.353721667698
-0.0531533058105
0.357636171682
-0.0537378103352
-0.0542630758441
0.361271420062
0.307085699409
-0.0669813780103
0.311023124834
-0.0678568439186
0.314953185081
-0.0687311756608
0.318874701885
-0.0695991572814
0.32278671983
-0.0704574381473
0.326671864759
-0.0712908301339
0.330480741356
-0.0720578307776
0.334205977026
-0.0727512465249
0.337947882148
-0.0734511994235
0.341790175185
-0.0742261066713
0.345695959758
-0.0750541349479
0.349599124377
-0.0758919371505
0.353478044984
-0.0767180793069
-0.0774389718449
0.357065221964
0.304537469223
-0.0850288204995
0.308489828282
-0.0861373891386
0.312435495818
-0.0872377119984
0.316373634695
-0.0883257527772
0.32028692643
-0.0893842980038
0.324126183454
-0.0903740014844
0.327883453154
-0.0912925746118
0.331659064279
-0.092223275835
0.335537321042
-0.0932380835152
0.339480408334
-0.0943105494008
0.343421541288
-0.0953890705286
0.347339153262
-0.0964556221633
0.351215348575
-0.097483387597
-0.0983310219752
0.3547533435
0.30319787344
-0.101536188548
0.307207160391
-0.102851839756
0.311210467479
-0.104153046993
0.315190350436
-0.105420182862
0.319121295527
-0.106624090886
0.32299603835
-0.107783181641
0.326868046341
-0.108966853714
0.330821360497
-0.11022234859
0.334840966604
-0.111529883964
0.338859318834
-0.112843159078
0.342854612762
-0.114141433532
0.346808139068
-0.115404423083
0.350669103765
-0.116572921252
-0.117525304733
0.354189480574
0.30295806248
-0.116836937387
0.30706321557
-0.118362053911
0.311146118221
-0.119842263817
0.315181192931
-0.121252793527
0.319207075449
-0.122635003448
0.323277400784
-0.124069945535
0.327387119161
-0.125573560501
0.331521807768
-0.12710470933
0.335657500761
-0.128632151537
0.33977220881
-0.130144551056
0.343847107332
-0.131619738816
0.347831125876
-0.133009336481
0.351716865171
-0.134300718721
-0.135451728726
0.355359077005
0.303813215251
-0.131170640579
0.308005527398
-0.13284141666
0.3121724497
-0.134429455465
0.31635451001
-0.136027405272
0.320606466915
-0.137708874734
0.324921928561
-0.139458462729
0.329241534357
-0.141222925304
0.333540453188
-0.142975068104
0.337817711997
-0.144707575255
0.342054559513
-0.146396090889
0.346224931603
-0.148007874014
0.350323089351
-0.149563409622
0.35440510506
-0.151129627515
-0.152591330924
0.358286631941
0.305730462901
-0.144609846918
0.310012683875
-0.146383208898
0.314356124326
-0.148179885163
0.318816911307
-0.15011394763
0.323342643195
-0.152139566975
0.327871793459
-0.154174302421
0.332377360674
-0.156188813681
0.336857446349
-0.158172756279
0.341294406675
-0.160097588052
0.345663160412
-0.161937363052
0.350006603715
-0.163741054262
0.354381501555
-0.165599486361
0.358779883138
-0.167514995809
-0.169248157456
0.362898110231
0.308674812797
-0.157387191903
0.313215667587
-0.159436159999
0.317901106612
-0.161643700502
0.322676742808
-0.163955795428
0.327456229898
-0.166276053539
0.332211743132
-0.16857250005
0.336917836835
-0.170815103654
0.341555937097
-0.172947643217
0.346147641779
-0.17498237458
0.350738157228
-0.177026474746
0.355385517287
-0.179160030542
0.360080195815
-0.181359620445
0.364755743177
-0.183549958753
-0.185490016694
0.369085754056
0.31286148932
-0.170054048674
0.317822419217
-0.172541363665
0.322879285305
-0.175113550567
0.327943729469
-0.177695250518
0.332987782829
-0.180251438425
0.337986858976
-0.182751104132
0.342875753719
-0.185121247688
0.347673513031
-0.187360227081
0.352517509877
-0.189621979908
0.357465775431
-0.192027669465
0.362460253341
-0.194522896439
0.36743370654
-0.197011357346
0.372355172511
-0.199448016843
-0.201570871584
0.376885570956
0.318455732144
-0.182941764711
0.32381922679
-0.185786486121
0.329193184436
-0.188611427257
0.334548707492
-0.191406269088
0.339861620776
-0.194138783817
0.345099519755
-0.196766439786
0.350259295442
-0.199323553526
0.355416032548
-0.201917673592
0.360673011731
-0.204618416687
0.3659999274
-0.207389980343
0.371302825885
-0.210152573579
0.376551257053
-0.212868811418
0.381719511454
-0.215497930688
-0.217723702873
0.386420326772
0.325430538272
-0.196114243081
0.331159631457
-0.199221729023
0.336869030352
-0.202291271695
0.342536122469
-0.205294278903
0.34813048932
-0.208194116801
0.353707477002
-0.211059524205
0.359341607488
-0.214021607934
0.365019555381
-0.217082855867
0.370709499629
-0.220152462663
0.376373109182
-0.223181071034
0.38197876335
-0.226157158351
0.387503566054
-0.229052021698
0.392915400763
-0.231819111647
-0.234214787378
0.397871157736
0.333915999611
-0.209734623491
0.340038801226
-0.213104968839
0.346125476649
-0.216408322864
0.352151053149
-0.219627462962
0.358164515817
-0.222832211644
0.364261106303
-0.226140289823
0.370425143811
-0.229540987111
0.376567811494
-0.232933334132
0.3826497868
-0.23626877005
0.388665843978
-0.239536345011
0.394599079662
-0.242714741112
0.400424679606
-0.245787455288
0.406186514728
-0.248805074557
-0.251560137723
0.411578886324
0.344123565165
-0.223992237608
0.350669715729
-0.227562303927
0.357233767846
-0.231130281876
0.363793139966
-0.234770759788
0.370399564717
-0.238485079969
0.377066269003
-0.242247826687
0.383705101988
-0.24599047032
0.390275390002
-0.249665220813
0.396746322728
-0.253234495191
0.403136430684
-0.256682199356
0.40948301843
-0.260091996055
0.415765548409
-0.263534206209
0.422029818002
-0.266999195432
-0.27012102194
0.427886339114
0.356295160511
-0.239080509484
0.36338319048
-0.242984904042
0.370597563811
-0.247038505422
0.377850222901
-0.251222535904
0.385087459678
-0.255401439622
0.392289559149
-0.259509704164
0.399417605419
-0.263537162727
0.406449567277
-0.267460987731
0.413350661452
-0.271254365758
0.420211832954
-0.274999076408
0.427120932878
-0.278838022197
0.433993389121
-0.282755321715
0.440771390954
-0.286612823472
-0.289979785205
0.447010202297
0.370886202463
-0.2554664229
0.378733687949
-0.260021330837
0.386670903456
-0.264637326701
0.394580985054
-0.269220238882
0.402411269038
-0.27370570369
0.410158077654
-0.278085096853
0.417854140156
-0.282395401642
0.425484703532
-0.286689400003
0.433011698335
-0.290967764793
0.440525167814
-0.295257663337
0.448036785319
-0.299564874284
0.455431088485
-0.303800604101
0.462648346278
-0.307887208483
-0.311417070614
0.469236479754
0.388447719415
-0.273907695997
0.397136921036
-0.279067975413
0.405784057693
-0.284121476542
0.414342525467
-0.289053294308
0.422791741291
-0.293841567154
0.431162877247
-0.298504904861
0.439577083653
-0.303206622543
0.448003252695
-0.308053328586
0.456318675158
-0.312924302027
0.464516822868
-0.31768994929
0.472564960728
-0.322308373162
0.480412838596
-0.326759535419
0.48802892473
-0.33100551425
-0.334639675908
0.494975333823
0.409302536893
-0.294461378155
0.418894513031
-0.300172791647
0.428328639682
-0.305711689589
0.437644163455
-0.311004398331
0.446869706245
-0.316188199557
0.45608319943
-0.321414470992
0.465346382983
-0.326736859488
0.474536790166
-0.332028447186
0.483568784508
-0.337197237194
0.49237876295
-0.342227147615
0.500901813767
-0.347009678024
0.509230595208
-0.351580598556
0.517369643216
-0.356090613436
-0.360091001326
0.524792644478
0.433433665935
-0.317147678093
0.444013253579
-0.323379692668
0.454382609791
-0.329468071348
0.464626190529
-0.335361182046
0.474848544009
-0.341207178891
0.485050170053
-0.347059167455
0.495115579227
-0.352790180825
0.504992892414
-0.358344641784
0.514735644417
-0.363826426923
0.524212018817
-0.369205521008
0.533300746135
-0.374328080001
0.54219179425
-0.379256308157
0.550951303174
-0.384150074801
-0.388479252848
0.558889224305
0.452447707053
0.463570018254
-0.343837659555
0.474585376808
-0.350228638391
0.485562879863
-0.356612194011
0.496558685474
-0.363037585323
0.507416372283
-0.369398570439
0.517993235231
-0.375528568015
0.528353939486
-0.381438270547
0.538544445009
-0.387196800523
0.548454974766
-0.392793776599
0.558001544445
-0.39820478659
0.567289961853
-0.403451650725
0.576343986313
-0.408543816056
0.584474041999
-0.412934021714
0.368657057829
-0.0211422637749
0.371617138782
-0.0218568780813
0.374623258061
-0.0225947795013
0.377625356389
-0.0233311120952
0.380615557717
-0.0240666864737
0.383669515328
-0.024839322089
0.386859950145
-0.025682617629
0.390211676207
-0.02659150166
0.393668922331
-0.0275470198976
0.397177892245
-0.0285398245405
0.400722493629
-0.0295570933177
0.404242001514
-0.0305643356424
0.407706506224
-0.0315440362392
0.411202813217
-0.0325410157725
0.41485414267
-0.0336211758258
0.418685632154
-0.034797836799
0.422609121143
-0.0360370618898
0.42656094267
-0.0373150475224
0.430471770912
-0.0386065298569
0.434273052752
-0.0398808143261
0.437991877447
-0.0411529357286
0.441707419997
-0.0424831310523
0.445588227343
-0.043940217012
0.449683638781
-0.0455298883438
0.453835265397
-0.0472059382497
0.457947730045
-0.0489400574088
0.462009434629
-0.0507163744922
0.466008680174
-0.0525251329781
0.469932785735
-0.0543618936189
0.473768160083
-0.0562232620053
0.477500405901
-0.0581060618063
0.48111426469
-0.0600071661604
0.484593593521
-0.061923046668
0.487921360836
-0.0638496409401
0.491079648252
-0.0657823281341
0.49404965583
-0.0677159299076
0.496811708869
-0.0696447358685
0.499306263785
-0.0715669220181
0.501511078105
-0.0734752363482
0.503485811991
-0.0753464724582
0.505209727498
-0.0771653848552
0.506617680885
-0.0789326570282
0.507685444921
-0.0806456092503
0.508388226541
-0.0822957052151
0.508700508542
-0.0838729670622
0.508596129631
-0.0853667237392
0.508048966449
-0.0867659786709
0.507031696712
-0.0880594956864
0.505514937685
-0.0892358641721
0.503469933475
-0.0902835227153
0.500867937577
-0.0911908495319
0.497678673495
-0.0919462389435
0.493870996526
-0.0925381420172
0.489412788937
-0.0929551245294
0.484270835899
-0.0931859166825
0.478410681699
-0.093219450428
0.471796467018
-0.0930448849627
0.464390749019
-0.0926516164296
0.45615430719
-0.0920292704751
0.447045939229
-0.0911676733502
0.43702225285
-0.0900568015351
0.426037461392
-0.0886867056074
0.414043193377
-0.0870474080465
0.400988329061
-0.0851287733986
0.386818880517
-0.0829203494803
0.371477936109
-0.0804111806711
0.354905695555
-0.0775895932428
0.337039628363
-0.0744429565835
0.317814796637
-0.0709574229164
0.297164393278
-0.0671176541612
0.275020559125
-0.0629065448324
0.251315558171
-0.0583049565958
0.225983410137
-0.0532914852396
0.198962106989
-0.047842289353
0.170196580166
-0.0419310268244
0.139642650661
-0.0355289731854
0.107272307095
-0.0286054706612
0.0730809042318
-0.0211290417234
0.0371033347039
-0.0130713839238
-0.00447901222949
0.364386205216
-0.0405782483531
0.367263468038
-0.0419316712655
0.370162413269
-0.0433207289516
0.373075932087
-0.0447332154532
0.3760677315
-0.0462046972682
0.379193578296
-0.0477688305285
0.38242852158
-0.0494269072493
0.385753287127
-0.0511670994137
0.389150368069
-0.0529805091156
0.392586525603
-0.0548522252138
0.396015289014
-0.0567460490833
0.399405235906
-0.0586340125493
0.402810481476
-0.0605514276499
0.406335085084
-0.0625773642466
0.410020785037
-0.0647532513449
0.413820450967
-0.0670574001381
0.417672876288
-0.0694563784616
0.421539146623
-0.0719203050279
0.425353628415
-0.0743894384684
0.429088466197
-0.0768486879077
0.432802706994
-0.0793692435597
0.436559986309
-0.0819955592065
0.440455247362
-0.0847928635415
0.444506266848
-0.0878079203224
0.44859484593
-0.0909763818873
0.452649202284
-0.094244079575
0.456658548137
-0.0975936878001
0.460611441827
-0.10101338565
0.464495474447
-0.10449568924
0.468297438575
-0.108033981793
0.472003339192
-0.11162181421
0.475598361622
-0.115252518132
0.479066852778
-0.118918727205
0.482392310825
-0.122612197402
0.485557380171
-0.126323737644
0.488543851335
-0.130043170644
0.491332665696
-0.133759321946
0.493864595708
-0.137468175613
0.496117632875
-0.141158541532
0.498152097299
-0.14479001298
0.499947378814
-0.148331347838
0.501438240559
-0.151780641867
0.502600819808
-0.15513254606
0.503410568901
-0.15837087234
0.503842090322
-0.161476788375
0.503869223601
-0.164430048457
0.503465282917
-0.167209674496
0.502602586217
-0.169794075795
0.501252125895
-0.172161165937
0.499384554789
-0.174288468282
0.496969955268
-0.176153231358
0.493977219544
-0.177732545863
0.490374230086
-0.179003454582
0.486127767501
-0.17994305161
0.481203399583
-0.18052857611
0.475565351894
-0.180737485943
0.469176360639
-0.180547511244
0.461997509392
-0.179936680156
0.453988052198
-0.178883313882
0.445105226864
-0.177365982291
0.435304063774
-0.175363419495
0.424537197478
-0.172854390413
0.412754690673
-0.169817506921
0.39990388305
-0.166230989663
0.38592928108
-0.162072372021
0.370772509234
-0.157318147371
0.354372348577
-0.151943358649
0.336664895408
-0.14592113698
0.317583880963
-0.139222193845
0.297061203284
-0.131814283284
0.275027734831
-0.123661651429
0.251414484507
-0.114724503973
0.226154211642
-0.104958532045
0.199183613821
-0.0943145519506
0.17044624483
-0.0827383416398
0.139896375002
-0.0701707981478
0.107504109349
-0.0565486678821
0.0732623233722
-0.0418064834719
0.0372026443003
-0.0258843681725
-0.00887410351917
0.360099863774
-0.057865768638
0.362867252166
-0.0597452447745
0.365675781157
-0.0617156584173
0.368588279371
-0.063784873629
0.371646596352
-0.065976683387
0.374827969898
-0.0682833181107
0.378081011401
-0.0706863927023
0.381388760616
-0.0731821151561
0.384736501562
-0.0757607476701
0.388078323252
-0.0783864949555
0.391383892809
-0.0810320851432
0.394706413533
-0.0837358185793
0.398148805049
-0.0865809124332
0.401753241752
-0.0896110020856
0.405471764813
-0.0928041577542
0.409245205824
-0.0961266842668
0.413037251069
-0.0995502582099
0.416798469321
-0.103017661569
0.420517477711
-0.106505432891
0.424238318076
-0.110086277749
0.427969148265
-0.113807877076
0.431766886674
-0.117678369786
0.435712127802
-0.121761836474
0.439747558767
-0.126076834173
0.443782248723
-0.130561950232
0.447786035354
-0.135176508779
0.451748482532
-0.139906490828
0.455658425459
-0.144741294969
0.459503840413
-0.149672351093
0.463271990239
-0.154691087015
0.466949385187
-0.159788623145
0.470521761227
-0.164955358265
0.473974062801
-0.170180672088
0.477290427565
-0.175452769599
0.48045417489
-0.180758587726
0.483447798224
-0.186083723164
0.48625296148
-0.191412384268
0.488810648684
-0.196738630988
0.491099263896
-0.202049455286
0.493180601074
-0.207291841396
0.495034515076
-0.212419883019
0.496595626079
-0.217427840722
0.497840639255
-0.222307789548
0.498745465205
-0.227036864011
0.499285041943
-0.23158864856
0.499433426602
-0.235934652373
0.499163786188
-0.240045202629
0.498448346599
-0.243889582322
0.497258348323
-0.247436170921
0.495564070949
-0.2506525811
0.493334789985
-0.253505799579
0.490538675
-0.255962329243
0.487142714078
-0.257988333506
0.483112624191
-0.259549766225
0.478412746322
-0.260612495993
0.473005925324
-0.261142406393
0.466853374905
-0.261105472101
0.459914528801
-0.260467799604
0.45214688014
-0.259195628234
0.443505812139
-0.257255278396
0.433944424748
-0.254613045415
0.423413363697
-0.251235024989
0.41186066076
-0.247086866991
0.399231596888
-0.242133450438
0.385468603565
-0.236338472968
0.3705112222
-0.229663954736
0.354296147034
-0.222069653643
0.336757383888
-0.213512400149
0.317826565677
-0.203945356869
0.297433475798
-0.193317226136
0.275506842902
-0.181571430404
0.251975484971
-0.168645310467
0.22676989728
-0.154469400829
0.199824397702
-0.138966860644
0.17107996505
-0.122053166372
0.140487939809
-0.103636194906
0.108014833848
-0.083616928996
0.0736487743728
-0.0618915145693
0.037415354662
-0.0383620390661
-0.0131613867509
0.357735426695
-0.0734268397361
0.360509393371
-0.075812516693
0.36338372621
-0.0783784650483
0.366398426494
-0.0810883497133
0.369534473097
-0.0839282657193
0.372742964384
-0.0868836330119
0.376007472516
-0.0899493141766
0.379312529899
-0.0931154009998
0.382612569944
-0.0963460128847
0.38587911666
-0.0996211474171
0.38916544249
-0.102987610322
0.392572810246
-0.106526662609
0.396143270222
-0.110278875121
0.399829080181
-0.11422054357
0.403571702468
-0.118315949768
0.407334961313
-0.12253638292
0.411068755316
-0.12682450457
0.414762689089
-0.131157674815
0.418493503751
-0.135626813346
0.422272804653
-0.140286396662
0.426053199615
-0.145096873114
0.429918816007
-0.150120759139
0.433924176624
-0.155427727651
0.437972674669
-0.160959731742
0.441997260001
-0.166661119737
0.445988317155
-0.172513879973
0.449935860891
-0.178505905741
0.453829173844
-0.18462834625
0.457656761776
-0.190872945392
0.461406394879
-0.197230688648
0.465065086777
-0.203691534984
0.468619085816
-0.210244155606
0.472053866793
-0.216875781695
0.475354122141
-0.223572097558
0.478503753466
-0.230317163349
0.481485863478
-0.237093345211
0.484282748229
-0.24388126384
0.486835405813
-0.250673751542
0.489122685973
-0.257456721552
0.491208319151
-0.264166587398
0.493072893399
-0.27074494158
0.494650948272
-0.27718297511
0.495919913895
-0.283470659047
0.496856352482
-0.289579373122
0.497435775952
-0.295476235677
0.497632751275
-0.30112572048
0.49742086986
-0.306490694011
0.49677270728
-0.311532549247
0.495659776878
-0.316211346811
0.494052480179
-0.320485954929
0.491920044976
-0.324314195173
0.489230448709
-0.327652991082
0.485950331662
-0.330458522732
0.482044899035
-0.332686366065
0.477477811159
-0.334291628816
0.472211061601
-0.335229060297
0.46620484336
-0.33545313546
0.459417403978
-0.334918099166
0.451804891201
-0.333577965187
0.443321191854
-0.331386452852
0.433917767944
-0.3282968587
0.423543495755
-0.324261844138
0.412144515952
-0.319233133533
0.399664105532
-0.313161111799
0.386042586123
-0.30599431084
0.371217287705
-0.29767878254
0.355122592538
-0.288157351888
0.337690091234
-0.277368758678
0.318848891649
-0.265246692426
0.298526131838
-0.251718749089
0.276647760778
-0.236705341316
0.253139664641
-0.220118621522
0.227929231155
-0.20186149745
0.200947457293
-0.181826844478
0.172131710624
-0.159897042631
0.141429244946
-0.135943932237
0.108801560974
-0.10982918884
0.0742299266945
-0.0814052180192
0.0377306225466
-0.0505255723192
-0.0173508978739
0.357238434342
-0.0877880939798
0.360158802283
-0.0907196279178
0.363187240795
-0.0938650564897
0.366304541301
-0.097150117897
0.369494899165
-0.100561975407
0.372742232741
-0.104099972693
0.376031220443
-0.107753803647
0.379316684318
-0.11148752307
0.38258934763
-0.11528988452
0.385904927507
-0.119225602458
0.389326001247
-0.1233684136
0.392892239236
-0.127737533086
0.396575636545
-0.132312052765
0.400317630317
-0.137062391615
0.404081477638
-0.141959011347
0.407815648519
-0.146945314241
0.411509848761
-0.152000408979
0.415261076901
-0.157226541853
0.419099734046
-0.162702079381
0.422937448621
-0.168357133019
0.426809955959
-0.174189910772
0.43080028566
-0.180311502221
0.434863387392
-0.18672222043
0.438927705548
-0.193348949664
0.442963926663
-0.200160108414
0.446962363199
-0.207143438107
0.450912941396
-0.214289030912
0.454804888832
-0.221588587773
0.458626781824
-0.229033340243
0.462366520701
-0.236613396956
0.466011312483
-0.244317438215
0.469547661123
-0.252132540327
0.472961358728
-0.260044062726
0.47623747709
-0.268035551301
0.479360358949
-0.276088662991
0.48231360846
-0.284183091734
0.485080080599
-0.292296511521
0.487600728395
-0.300421060482
0.48985480544
-0.308542156125
0.491907997942
-0.316586857793
0.493741741151
-0.324485640146
0.495290659848
-0.332227505631
0.49653307589
-0.339801086514
0.497446382616
-0.347172948617
0.498006870651
-0.354304795886
0.49818986103
-0.36115519421
0.497969658523
-0.367680717765
0.49731949625
-0.373836067385
0.496211471656
-0.379574198215
0.494616474442
-0.384846447076
0.492504105544
-0.389602666418
0.489842586348
-0.3937913617
0.486598657998
-0.397359836838
0.482737470616
-0.40025432317
0.478222462363
-0.402420107138
0.47301522841
-0.403801630237
0.467075380249
-0.404342562582
0.460360396188
-0.40398583375
0.45282546455
-0.402673614666
0.444423321962
-0.400347229977
0.435104090319
-0.396946997335
0.424815117627
-0.392411969865
0.41350083003
-0.386679573768
0.401102605087
-0.379685126098
0.387558679973
-0.371361217574
0.372804112848
-0.361636955033
0.356770821512
-0.350437052868
0.339387730803
-0.33768078073
0.320581069329
-0.32328077035
0.300274867175
-0.307141714098
0.278391719374
-0.289158993033
0.254853894629
-0.269217308374
0.229584883808
-0.247189420392
0.202511493334
-0.222935138722
0.173566581118
-0.196300750369
0.142692468888
-0.167119007785
0.109844854786
-0.135209379943
0.0749966916074
-0.100376730676
0.0381495166047
-0.0624124714919
-0.0214635485036
0.358590637801
-0.101280880069
0.361664743397
-0.104738117375
0.364811726121
-0.108406886648
0.368016220664
-0.112219404265
0.371278043944
-0.116172093746
0.374581979203
-0.120255594565
0.377883268311
-0.124435506083
0.381172858778
-0.128702376515
0.38454252185
-0.13313160712
0.388055578564
-0.137801174821
0.391678916764
-0.142709218056
0.395384434238
-0.147823457142
0.399150978411
-0.153126382046
0.402941433157
-0.158596411117
0.406702729231
-0.164178053097
0.410424496486
-0.169853281256
0.414207061339
-0.175728911847
0.418115908306
-0.181904179029
0.422041577471
-0.188309608809
0.425945663643
-0.19487550664
0.429957224971
-0.201702058907
0.434071347861
-0.208851105608
0.438190823305
-0.216259677569
0.442286688717
-0.223885272918
0.446348674851
-0.231715768025
0.450366662001
-0.239739710877
0.454330174371
-0.247948167127
0.458228163988
-0.256332271664
0.462049029718
-0.264882118754
0.465780587513
-0.273586426185
0.469410053307
-0.282432305879
0.47292403123
-0.291405115245
0.476308503697
-0.300488344997
0.47954882212
-0.309663515717
0.482629697117
-0.318910094402
0.485535187226
-0.328205410733
0.488248685568
-0.337524591638
0.490711196674
-0.346859574213
0.49290236759
-0.356195900884
0.494889609921
-0.365451944583
0.496655283658
-0.374547747945
0.49813436699
-0.383470953163
0.499306218634
-0.3922097305
0.500149214641
-0.400726707662
0.500640587962
-0.408979135122
0.500756598728
-0.416920700447
0.500472471589
-0.424502765979
0.499762323283
-0.431674465847
0.498599080239
-0.438382811982
0.496954387215
-0.444572798983
0.49479850705
-0.450187514524
0.492100211369
-0.455168251989
0.488826662173
-0.459454631538
0.484943284366
-0.4629847023
0.480413629364
-0.465695044235
0.475199230119
-0.467520840224
0.469259448113
-0.468395920852
0.462551313244
-0.46825276377
0.455029358047
-0.467022441005
0.446645448437
-0.464634490567
0.437348614217
-0.461016708066
0.427084884054
-0.456094830106
0.415797131584
-0.449792098914
0.403424941968
-0.442028689012
0.389904511737
-0.432720975953
0.375168599367
-0.421780637895
0.359146549986
-0.409113574254
0.341764425249
-0.394618646262
0.322945279025
-0.378186239256
0.30260963138
-0.359696681683
0.280676207622
-0.339018563103
0.257063025895
-0.316007038593
0.231688935378
-0.290502249329
0.204475725238
-0.262328057764
0.17535093093
-0.231291412879
0.14425140808
-0.197182771657
0.11112739512
-0.159777819386
0.0759452403324
-0.118837776724
0.0386881427643
-0.0740935177006
-0.0255494279024
0.361697027483
-0.114178165667
0.364885910759
-0.118105179107
0.368132213445
-0.122260448174
0.37143619454
-0.126571583154
0.374784019889
-0.131020730107
0.378133293683
-0.135582087169
0.381474568604
-0.140255475188
0.384897273551
-0.145114206165
0.388481987584
-0.150234074508
0.392195719163
-0.155605188807
0.39597460645
-0.161188243523
0.399796995086
-0.166971571606
0.403643406143
-0.172937801415
0.407460197855
-0.179031607195
0.411237315363
-0.185237234302
0.415078236537
-0.191664391677
0.419068256603
-0.198423712825
0.423114381427
-0.205466124276
0.42709869966
-0.212688892529
0.431119950563
-0.220143829683
0.435276019926
-0.227937274697
0.439480278961
-0.236044244991
0.443659937712
-0.244399914099
0.447805065105
-0.252982497508
0.451905868512
-0.261781984128
0.455952323971
-0.270790117061
0.45993391604
-0.279998712569
0.463839588644
-0.289398559404
0.467657740306
-0.298978986128
0.471376221079
-0.30872763337
0.47498233454
-0.318630315347
0.478462840055
-0.328670909469
0.481803953785
-0.338831266309
0.484991347392
-0.349091120093
0.488010143556
-0.359428015534
0.490844907364
-0.369817230221
0.493479633043
-0.380231713545
0.495855670022
-0.39066382043
0.497953121543
-0.401100021223
0.499840667343
-0.411450288707
0.501501673184
-0.421624359003
0.502871885909
-0.431609337314
0.503931845061
-0.441393917027
0.504661048327
-0.450937587505
0.505037810407
-0.460194006427
0.505039479512
-0.469112904118
0.504642359117
-0.477641408388
0.503821618587
-0.485724118221
0.502551192595
-0.493303183777
0.500803670843
-0.500318382341
0.498550178595
-0.506707196826
0.495760248228
-0.512404893536
0.492401682018
-0.517344607102
0.488440406472
-0.521457402875
0.483840318562
-0.524672338744
0.478563124343
-0.526916494259
0.472568170609
-0.528114970786
0.465812270513
-0.528190843093
0.458249524492
-0.527065055439
0.449831138475
-0.524656235756
0.440505242248
-0.520880422905
0.430216712184
-0.515650674483
0.418907004339
-0.508876542008
0.406514006465
-0.500463389862
0.392971920898
-0.490311532763
0.378211194889
-0.478315177972
0.362158521038
-0.464361150449
0.344736938421
-0.448327402064
0.325866075228
-0.430081300193
0.305462586474
-0.40947773125
0.283440856096
-0.386357063632
0.259714051737
-0.36054306648
0.234195643916
-0.3318409303
0.206801533161
-0.300035623407
0.177452981184
-0.264891019854
0.14608064199
-0.226150737338
0.112630132831
-0.183543241862
0.0770693966411
-0.136798788976
0.0394009494627
-0.0857062364986
-0.0297387328865
0.36645409431
-0.126673891007
0.369763171302
-0.131038236026
0.373114767169
-0.135643498063
0.376494888631
-0.140381287342
0.379914860532
-0.145247208406
0.383369813194
-0.150286347663
0.386889990274
-0.155547226609
0.390552305373
-0.161065328509
0.39434503671
-0.166838685675
0.398204616523
-0.172837772515
0.402108427275
-0.17905047085
0.406035425315
-0.185460368089
0.409931066205
-0.19201327544
0.41378560684
-0.198695930574
0.417705014999
-0.205621418963
0.421776221172
-0.212901283992
0.425937754685
-0.220493923859
0.430072172178
-0.228297236363
0.434189805423
-0.236329333829
0.438392454258
-0.244695269434
0.442669355006
-0.253406751443
0.446941619558
-0.262399357204
0.451178207663
-0.271640266276
0.455368989797
-0.281119721806
0.459503917207
-0.290829573851
0.463572568426
-0.30076193649
0.467564089888
-0.310907912566
0.471467177582
-0.321257217447
0.475270070244
-0.331797911413
0.47896055451
-0.342516234645
0.48252597274
-0.353396498766
0.485953230439
-0.364420989205
0.489228801564
-0.375569885772
0.492338730357
-0.386821182762
0.495268628436
-0.398150627409
0.498003665716
-0.409531653373
0.500528554104
-0.420935330642
0.502785477479
-0.432355172265
0.5047551376
-0.443779599624
0.506506776027
-0.455110195151
0.508024843289
-0.466246051943
0.509246432459
-0.477174579471
0.510153409919
-0.487886071398
0.510726524811
-0.498337582678
0.510945294388
-0.50847992289
0.510788276712
-0.518259666991
0.510232977227
-0.527620573923
0.509255742673
-0.53650363676
0.507831642649
-0.544847133089
0.505934340877
-0.552586666286
0.503535957064
-0.559655204867
0.500606919809
-0.565983117021
0.497115810986
-0.571498210121
0.493029202076
-0.576125743362
0.488311482917
-0.579788438745
0.482924683386
-0.58240645578
0.476828288674
-0.583897334785
0.469979048976
-0.584175887733
0.46233078475
-0.583154029358
0.45383418923
-0.580740519422
0.444436630625
-0.576840610271
0.434081957638
-0.571355562861
0.422710313562
-0.564182015204
0.410257966597
-0.55521117483
0.396657167371
-0.544327804251
0.381836049178
-0.531408980144
0.365718592692
-0.516322597341
0.348224685228
-0.498925613514
0.32927031552
-0.479062023954
0.308767958857
-0.456560600881
0.286627224564
-0.431232442211
0.262755858172
-0.402868431111
0.2370612148
-0.37123675261
0.20945235348
-0.336080673307
0.179842972531
-0.297116909268
0.148155631923
-0.25403527183
0.114328519206
-0.206502131224
0.0783288816366
-0.154178351253
0.0401909712769
-0.0967940576816
-0.0336412665098
0.3728029835
-0.138850845192
0.376246047464
-0.14362693658
0.379689287245
-0.148632570515
0.383141375316
-0.15377350484
0.386699489668
-0.159119355237
0.390396824532
-0.164746329528
0.394197598087
-0.170649858601
0.398089242718
-0.176795276904
0.402048380375
-0.183167323968
0.406052444117
-0.189765136838
0.410080176506
-0.196573787363
0.414076764272
-0.20354214108
0.418032264007
-0.210659777719
0.422053620455
-0.218041751284
0.426229105339
-0.225800333509
0.430494646151
-0.233891129371
0.434745865238
-0.242208489687
0.438993308685
-0.250763443488
0.44330859804
-0.259652276091
0.447682448327
-0.26889583901
0.452051164945
-0.278442092352
0.456382589945
-0.288258689066
0.46066585842
-0.298334772409
0.464890467147
-0.308661070807
0.469045757191
-0.319229476714
0.473120766948
-0.330031132812
0.477104215295
-0.341055855707
0.480984486557
-0.352291882251
0.484749634633