/*--------------------------------*- C++ -*----------------------------------*\
  =========                 |
  \\      /  F ield         | OpenFOAM: The Open Source CFD Toolbox
   \\    /   O peration     | Website:  https://openfoam.org
    \\  /    A nd           | Version:  7
     \\/     M anipulation  |
\*---------------------------------------------------------------------------*/
FoamFile
{
    version     2.0;
    format      ascii;
    class       volScalarField;
    location    "1";
    object      p;
}
// * * * * * * * * * * * * * * * * * * * * * * * * * * * * * * * * * * * * * //

dimensions      [0 2 -2 0 0 0 0];

internalField   nonuniform List<scalar> 
7540
(
143.43760461
146.459044793
149.536956141
152.671650412
155.863305211
159.109337108
162.406470331
165.752343148
169.145365081
172.58400582
176.066730091
179.592031461
183.158421865
186.765172751
138.962073171
142.032857382
145.16330312
148.347509789
151.582020698
154.866813272
158.201818785
161.58541216
165.015184079
168.489028901
172.00532924
175.562530894
179.159055272
182.794828061
134.284722412
137.410604647
140.59537747
143.837233199
147.133237813
150.480351181
153.876199548
157.318874239
160.806606647
164.337692839
167.910417514
171.52296843
175.173760508
178.862344338
124.428805601
127.679612583
130.985778181
134.345645847
137.756923641
141.216938767
144.723024779
148.272883244
151.864625445
155.496410838
159.166248721
162.872001801
166.611806192
170.385855414
113.757624832
117.170957202
120.638559458
124.157494936
127.725062885
131.338272016
134.994380717
138.691164575
142.426513809
146.198172682
150.003805491
153.840980096
157.707571055
161.603456803
98.8360440526
102.489523002
106.19467012
109.947428033
113.743988863
117.581112678
121.456165237
125.366474452
129.309187143
133.281415118
137.280313059
141.302862565
145.34640873
149.411722684
82.4577103046
86.4339471841
90.4558641945
94.5189108614
98.6191231844
102.753171133
106.917884859
111.109714388
115.32507939
119.560541833
123.812658755
128.077820657
132.353473883
136.641164637
62.5480815391
66.9763321979
71.4412853757
75.9381368571
80.4625425131
85.0101440959
89.5763888743
94.1566578953
98.7465470909
103.341741899
107.938016847
112.531708566
117.1205661
121.706711412
41.1070456361
46.1275014738
51.1714318726
56.2329657458
61.3064096227
66.3859423104
71.4656739417
76.5398276959
81.6031438113
86.6509239671
91.6789625382
96.6838260313
101.663011285
106.618650011
16.7009715777
22.5528916862
28.4065100919
34.2536404162
40.0865690164
45.8978190901
51.6799659081
57.4260071759
63.1303308194
68.7883858331
74.3959483123
79.9489411291
85.4438953482
90.8833186437
-7.96619128376
-1.04870393152
5.834424618
12.6724911865
19.4557956588
26.1750329898
32.8214638235
39.3879172882
45.8688286519
52.259201046
58.5542117297
64.7492131493
70.8403778045
76.8309535025
-34.7111678365
-26.2926695032
-17.9717439421
-9.76164761385
-1.67383968392
6.2817838267
14.0975912198
21.7676213581
29.2861375723
36.6474961243
43.8466073922
50.8791011673
57.7416448524
64.4395078711
-57.5929182041
-47.3167382609
-37.2341195593
-27.358207784
-17.7006340424
-8.27118543914
0.921617507075
9.86948096977
18.5650869679
27.0030224581
35.1790051277
43.0771128779
50.6946532162
58.0434863938
-79.8018106687
-66.9355494837
-54.4729850895
-42.4231075119
-30.7984542563
-19.5491169186
-8.63483776077
1.93159788765
12.1315855836
21.9198763912
31.2929674102
40.2777056749
48.8854328863
57.1266790225
-88.7699731978
-73.1242579596
-57.9979145644
-43.3297633647
-29.1417618868
-15.5389308167
-2.62498415356
9.60476994233
21.1807114903
32.1604448249
42.5617443035
52.3881959134
61.6475058354
70.3561022573
-90.180167022
-70.1234796604
-51.088156968
-33.1426096996
-16.2711565045
-0.421902255139
14.4810595514
28.4702097317
41.5644918663
53.7865863935
65.1601147378
75.7125520479
85.4708109357
94.4678002769
-56.9232442847
-33.2863230628
-11.2278797663
9.30035619902
28.3605990407
46.0137807434
62.3122806296
77.3001522836
91.0232146647
103.530946617
114.875634413
125.115822171
134.305866323
142.487101997
-4.96135466314
22.5880695233
47.8606687739
70.9796273017
92.0515566592
111.178527091
128.453072246
143.960379475
157.776801614
169.974220243
180.649842598
189.910983863
197.837624382
204.490757055
109.622575533
138.367899474
164.073342073
186.96077376
207.205676199
224.954975297
240.336549591
253.474462848
264.509978671
273.605706541
280.92534467
286.601668552
290.810351726
293.851129184
228.158933317
256.272233847
280.677005243
301.707981825
319.650298395
334.753719569
347.249540698
357.31371186
365.131100227
370.944512628
375.119080396
377.945387415
377.699910705
376.639537801
189.934608659
192.681108852
195.518428762
198.452590051
201.487957775
204.626922648
207.87211617
211.22679945
214.694407442
218.278254967
221.981665423
225.808073921
229.76098981
233.844137859
238.061430032
242.416761484
246.913947838
251.556809159
256.349340739
261.295697782
266.400235989
271.667524599
277.102349105
282.709761953
288.494838555
294.462782972
300.619340022
306.970772849
313.523711986
320.285253762
327.263110835
334.465736717
341.902480631
349.583772947
357.521331231
365.728406858
374.220089254
383.01364094
392.128909246
401.589016542
411.421009629
421.656365578
432.331950724
443.491189276
455.185211878
467.474262416
480.429257722
494.133529473
508.6846871
524.196354777
540.799711275
558.643960296
577.892125044
598.726848606
621.349211721
645.935759472
672.671408284
701.670316516
732.944742329
766.346295774
801.456352987
837.512036486
873.267424534
906.756352572
935.819469697
957.041194257
964.79938773
955.240065801
926.11976971
874.31719967
798.362788745
701.051835482
588.995698039
471.51344439
359.125355327
260.700689207
182.419060769
121.359398871
81.0240351124
13.1159217753
185.989782058
188.771783875
191.649459832
194.620595159
197.689581134
200.860970446
204.13805212
207.523628832
211.020726355
214.63260004
218.362541653
222.213831268
226.189892471
230.29436265
234.530952162
238.90336958
243.415306628
248.070493919
252.872755389
257.825996113
262.934377294
268.202287982
273.634409309
279.235684562
285.010972882
290.965252007
297.104002613
303.433211335
309.959276963
316.689091482
323.630157531
330.790712045
338.179879981
345.807858026
353.686125406
361.827695219
370.247421326
378.962342745
387.992108873
397.359654242
407.091830133
417.219938197
427.780728108
438.817570942
450.381609523
462.533160155
475.343363214
488.895952439
503.289075864
518.637199799
535.07272509
552.746512703
571.826765053
592.498495046
614.963079842
639.437392631
666.075623756
695.002791712
726.246859851
759.682925216
794.9203848
831.199025935
867.291119511
901.182269165
930.146789305
950.726136201
958.572006098
949.47394117
919.527127953
865.509955491
786.749809151
685.93804147
569.917208963
448.805453626
334.189928517
236.001075993
160.160642716
103.198636887
70.2700689724
7.68383032054
182.100566478
184.896740263
187.783828398
190.767913923
193.852573484
197.039532031
200.331149994
203.730503116
207.240768915
210.864947387
214.60594006
218.466843663
222.451013232
226.561858814
230.802775987
235.177155765
239.68839799
244.339900504
249.135069789
254.077529604
259.171138319
264.419912744
269.828268385
275.40078704
281.141892809
287.056193548
293.148733548
299.424946944
305.890674277
312.552255145
319.416620332
326.491406391
333.785101674
341.307223363
349.068525514
357.081249583
365.359430739
373.919235955
382.779384487
391.961819477
401.492349175
411.401188785
421.723969716
432.502933937
443.788135589
455.638919708
468.125542606
481.331049987
495.353380946
510.307289279
526.32597869
543.562959757
562.193024231
582.409668329
604.416680811
628.41927639
654.620947516
683.163559777
714.093996816
747.293793502
782.378547385
818.544166294
854.476088577
888.22503905
917.122761482
937.684668913
945.417132076
935.364994344
902.998830117
845.108819747
761.048414494
653.969351298
531.588988348
405.520502817
289.010735691
193.189863843
123.978690153
76.30683128
56.2090255992
1.21021972383
173.696588723
176.567386818
179.535875579
182.597927447
185.756526483
189.015526447
192.37791664
195.846165217
199.422710051
203.11007723
206.911018596
210.82853145
214.865658767
219.025413267
223.310778339
227.724706602
232.270084486
236.949733037
241.766694626
246.72432748
251.825948175
257.075086974
262.47569241
268.031655957
273.74679893
279.625218151
285.67135981
291.889970052
298.28617223
304.86554316
311.63420028
318.598919579
325.767274406
333.147801376
340.750201205
348.585581914
356.666755776
365.008578727
373.628385862
382.546615531
391.787395823
401.379125791
411.355534618
421.75687328
432.631074647
444.035244006
456.037417013
468.718518693
482.174373317
496.517913917
511.881646
528.419197068
546.305476592
565.734456304
586.916885884
610.068761746
635.460452414
663.186497292
693.325325944
725.792518617
760.236216239
795.892404511
831.484400703
865.07297446
893.779696832
913.621363013
919.682299715
906.908823385
869.995674675
805.268468159
711.929321591
593.613643984
459.528002424
323.871412346
203.214129905
112.898923219
55.5066959234
23.3229057751
27.7541708635
-11.7192331338
165.014986873
167.951215413
170.982117998
174.108268263
177.331332543
180.652826361
184.074929474
187.59999669
191.230167212
194.96766577
198.814989466
202.774690167
206.849302501
211.041297759
215.353017505
219.78667434
224.344374564
229.028455548
233.841649494
238.786575227
243.865693589
249.081978976
254.438612899
259.938498636
265.584601754
271.380141613
277.328564332
283.433573667
289.699199788
296.129847896
302.730379288
309.506224239
316.463506096
323.609189516
330.951265352
338.498977621
346.263101883
354.256265526
362.493393441
370.99228091
379.774091976
388.863963721
398.292092634
408.094880822
418.316069161
429.008232989
440.234461904
452.070475437
464.607010224
477.951637626
492.230565227
507.591007801
524.202956595
542.257654047
561.966490634
583.561312032
607.213968578
633.186441937
661.533553241
692.146768293
724.566133046
758.016698239
791.217485814
821.90536501
847.022567307
862.807162504
863.615819
846.278658612
803.566682873
731.026685767
627.219072867
495.651430147
346.722295925
198.209433448
69.5039595416
-9.23253678209
-50.4694312451
-63.2425253665
-17.6932104436
-30.5617951632
152.965068525
156.02680225
159.188388781
162.441994835
165.788044022
169.229139319
172.767594269
176.40491439
180.142588466
183.982570464
187.926919103
191.977524136
196.136190239
200.404602576
204.784203897
209.276266427
213.882298165
218.604253568
223.444054575
228.40314356
233.483224267
238.686577646
244.015236936
249.470981934
255.055716232
260.771487401
266.620488483
272.605098823
278.727912779
284.991781363
291.399877502
297.955782162
304.663583738
311.528000303
318.554533374
325.749660278
333.121076361
340.677978124
348.431509747
356.395237046
364.585488325
373.02197719
381.728874353
390.735815171
400.078896971
409.802085388
419.95886374
430.613988441
441.845794274
453.748698797
466.433390588
480.028206054
494.682398916
510.56883308
527.880715058
546.810195332
567.485156249
590.007303644
614.341324722
640.387123582
667.496460664
694.377867118
720.07160122
743.588296466
762.415065724
772.254002875
767.964326067
743.087180029
691.33923606
607.818878864
490.76034577
344.088709007
179.346052983
15.4554348419
-122.386528078
-186.470454207
-204.204710539
-184.807489512
-87.1323836287
-57.4377629464
140.378276335
143.578826804
146.876875222
150.265717276
153.744036922
157.312561297
160.972742234
164.725905046
168.573384973
172.516511586
176.556457999
180.694218986
184.930653886
189.266386083
193.701810282
198.23755529
202.874724814
207.61443982
212.457220254
217.403304769
222.453678218
227.609511558
232.871408539
238.239889097
243.715561578
249.299084487
254.99117402
260.792595288
266.704167101
272.726791009
278.861488985
285.109450758
291.472094471
297.951144337
304.548733543
311.267538452
318.110956991
325.083315013
332.190293437
339.439252379
346.839313539
354.401962569
362.142056211
370.078612168
378.235651728
386.643419405
395.339684011
404.370526814
413.790131364
423.661258106
434.05867821
445.07268146
456.819296623
469.446000202
483.097439
497.888426931
513.796962166
530.428700024
547.18662325
563.667692302
580.61045156
598.922984066
618.530649065
637.459224081
651.748477
653.16244214
640.62984602
604.210575128
537.981200259
437.185080103
300.410489681
132.864829422
-51.0043835841
-227.347405227
-365.341948971
-431.263510163
-421.932127516
-336.67981203
-179.414246978
-91.1376355692
125.689555748
129.095498566
132.600354477
136.190815678
139.863781652
143.620140307
147.461262172
151.387874385
155.400392197
159.499035416
163.683872398
167.954827506
172.311547667
176.753400125
181.279988385
185.891421675
190.587858513
195.368901034
200.233557346
205.181204279
210.211818094
215.325048382
220.520130376
225.796212236
231.152382408
236.587689464
242.10109914
247.691450711
253.357443062
259.097624857
264.910382188
270.793929563
276.746307595
282.765390356
288.848910203
294.99450308
301.199786621
307.462448298
313.780627739
320.153016807
326.578560271
333.056985333
339.5896248
346.179857994
352.833809761
359.560076763
366.369726776
373.275452474
380.288542178
387.42803718
394.734927251
402.277351062
410.164951404
418.462708653
426.928627478
435.218257821
442.521966041
448.590043971
453.999220999
461.108899512
471.764366178
485.878340418
503.243318387
518.741134272
526.226776244
520.097929302
494.678423467
443.040714133
358.083533242
234.247373448
70.7980380719
-124.650904853
-333.663178616
-527.209346014
-668.767806212
-722.828172457
-672.211759182
-526.168141589
-295.901111203
-129.42760549
110.902033929
114.545757162
118.28282422
122.098852685
125.988983633
129.953069669
133.992017533
138.105762099
142.29345169
146.553974783
150.886171353
155.288697396
159.759929459
164.298425339
168.903242447
173.573517677
178.307837293
183.104142996
187.960546913
192.87580219
197.848527293
202.876817358
207.958564494
213.091507585
218.273223048
223.501105344
228.772280674
234.08353505
239.43125352
244.811349269
250.219183596
255.64947928
261.096229314
266.552605706
272.010874155
277.462313122
282.897151622
288.304483635
293.672545628
298.988506747
304.237535407
309.403764431
314.470476274
319.420058278
324.23531431
328.897925399
333.384155667
337.640651777
341.591769733
345.2988842
348.7688589
351.983322397
354.949967479
357.553918519
357.325900705
355.423637633
350.659307566
344.339371668
340.44612981
340.411036331
351.95883665
367.236279855
383.361520823
395.032823177
392.842819587
377.37644993
338.906914983
270.590178064
164.781848231
15.2536389309
-178.283298657
-405.986167914
-644.676471088
-858.119220999
-1002.9725458
-1040.96632586
-951.503069065
-742.787359047
-431.83740083
-170.704241536
95.5568525158
99.5214512318
103.573447277
107.693615666
111.87529465
116.117681614
120.420705162
124.782777597
129.201365372
133.673862675
138.19765451
142.769970409
147.388212302
152.050208469
156.753852467
161.496580613
166.275262916
171.086875391
175.928994878
180.799215614
185.694664507
190.612172913
195.548423742
200.499932565
205.462987338
210.43353268
215.407045476
220.378414286
225.341806054
230.290512888
235.216777771
240.111599675
244.964520822
249.763398182
254.494162383
259.140546263
263.683837334
268.10248757
272.37245551
276.466929095
280.354986756
284.00323323
287.375677483
290.424193504
293.063435795
295.273908917
297.016225575
298.276797979
298.239295955
297.784857788
296.741235551
294.717921636
291.115499995
284.973938448
274.667372322
259.499107964
241.045946759
222.743242475
214.434637523
214.886078481
226.952992602
242.206124589
256.684968065
264.090324076
257.160829965
231.508439236
181.05158735
97.6556991264
-27.5495005811
-201.266788663
-423.247209755
-681.130247517
-947.838715814
-1181.54914059
-1332.38538135
-1356.06190784
-1228.79652649
-959.216973105
-574.888443165
-210.011889407
81.9399422292
86.2509171985
90.6329287244
95.0672838395
99.5456674882
104.065371449
108.624770665
113.220852037
117.849663535
122.507153339
127.189389736
131.892739728
136.613976557
141.349954338
146.097164712
150.851662006
155.609634364
160.367809813
165.12288645
169.87122297
174.609118481
179.332677216
184.037797684
188.720208932
193.375329774
197.998063684
202.582611003
207.122272679
211.60922161
216.034243684
220.386440417
224.652898769
228.818331821
232.86468907
236.770761596
240.511702034
244.058611522
247.378487784
250.431846111
253.169523285
255.534923629
257.473447677
258.98344755
259.994342559
259.914264185
259.394630568
258.016752873
255.516992027
251.859235653
246.997434267
240.667922477
232.260361099
220.532610411
203.641891038
180.045429834
150.462589979
119.41572309
93.7049787241
80.798968981
78.7051865719
90.5792179187
106.591936457
121.369549878
126.12996264
117.11802227
86.5829509319
28.9864856644
-64.1602249265
-202.968454281
-395.044861109
-638.501605849
-918.689554301
-1205.1648086
-1451.84275419
-1606.82270149
-1623.07360278
-1466.8906757
-1147.06693117
-701.729637493
-248.013002207
70.1034643076
74.871153081
79.6888531376
84.5340211722
89.3958385945
94.2697230956
99.1519928199
104.037590102
108.920810583
113.79618024
118.658618328
123.503505047
128.326385111
133.122581316
137.887175924
142.615278993
147.302503122
151.944944219
156.539206422
161.082479991
165.571131597
170.001260456
174.369216335
178.671297087
182.903310294
187.060368509
191.136660452
195.125120138
199.017062354
202.801780699
206.466089138
209.993791812
213.365111245
216.556038546
219.537759338
222.275396352
224.727066227
226.845870617
228.583040558
229.886270779
230.697649263
230.620116358
230.180762882
228.863642301
226.496245221
222.991771195
218.153274253
211.812774106
203.852846964
194.072467877
181.940487596
166.25659301
145.018368704
115.936663411
77.9834693233
33.6264902434
-10.3227719484
-45.2072990725
-64.5091619445
-69.3284655081
-59.3465381691
-42.3040049568
-25.4989643588
-16.7229608993
-24.3058294363
-52.8545786294
-109.978742406
-203.838846373
-344.860071953
-544.550780877
-793.91257839
-1084.62711179
-1381.8392513
-1634.15334676
-1787.16772583
-1795.8688519
-1622.9256074
-1274.33632853
-790.983054962
-276.939353729
64.1850611533
69.3204721721
74.4660075152
79.6077114683
84.731403379
89.828407763
94.8930027225
99.918414741
104.897356181
109.82325757
114.684988807
119.479283959
124.206080637
128.86603974
133.457938256
137.979572615
142.42425438
146.769696143
151.003515407
155.154526627
159.211744628
163.164461119
167.011178798
170.75193064
174.384776363
177.90642045
181.312367032
184.596421448
187.750251076
190.7627512
193.619279252
196.301017312
198.784462343
201.039654179
203.030315511
204.712593393
206.03229552
206.930612879
207.335260028
207.095160747
206.276381474
204.644953849
202.079557204
198.402134437
193.414703983
186.90641082
178.674651466
168.53896469
156.296264484
141.537729918
123.319197676
99.8520816107
68.5638673579
26.997847758
-25.2173823912
-84.2054103952
-141.739631151
-188.335429702
-217.23932015
-226.648304096
-221.16679298
-200.876528287
-178.096305594
-160.931540094
-162.640515711
-181.028095401
-228.74925791
-313.216780055
-443.501646871
-629.462657967
-867.303100925
-1153.48552664
-1450.08631832
-1701.38760809
-1854.44680192
-1860.48665654
-1681.16059293
-1319.24969278
-824.025451201
-276.81780985
63.9368299454
69.6201780969
75.2506301287
80.8098027501
86.2872773748
91.6743719093
96.9619493436
102.144291866
107.218775388
112.179351632
117.022994053
121.735350625
126.305248817
130.724728612
134.979500521
139.060530151
142.97061992
146.73113694
150.357613275
153.82647004
157.143810222
160.316853676
163.350324258
166.243916148
168.999555006
171.619486458
174.102843268
176.44657591
178.645098936
180.689164007
182.564581464
184.251184535
185.720805113
186.938066473
187.864264725
188.451418674
188.578715612
188.273984167
187.368881974
185.758146636
183.344182662
179.974573508
175.464034232
169.602254222
162.144545139
152.841751722
141.469481257
127.81420522
111.567341096
92.0805091376
68.0252887812
37.1544023991
-3.46813092043
-56.3321546882
-121.361376056
-194.014621646
-265.570374887
-325.973932195
-367.017683628
-384.208858408
-384.785818141
-360.641758797
-329.135133074
-300.177352891
-284.08444141
-289.175537926
-319.95193757
-385.627310204
-495.360934175
-657.435483227
-878.727087725
-1137.68420563
-1406.12333563
-1642.37143948
-1790.15016554
-1786.6812288
-1626.76886695
-1286.33797351
-803.10244447
-268.609514862
77.417601999
83.2513137769
88.9334827011
94.4646510765
99.8366085765
105.046570812
110.088879307
114.949691143
119.612948937
124.067792336
128.309756666
132.342023888
136.154314164
139.704216413
143.013907064
146.138231036
149.068417255
151.791472043
154.313487815
156.648368433
158.811134976
160.810018376
162.644900221
164.322461317
165.855421368
167.251752744
168.50841364
169.635530938
170.636137548
171.504382661
172.232440498
172.808035703
173.193760029
173.34997746
173.220734332
172.758470271
171.87603985
170.476497241
168.441140163
165.64220446
161.932025027
157.127998806
151.009451375
143.322537216
133.793294144
122.155027588
108.165978074
91.5705697371
71.9542678692
48.4742516005
19.5360942885
-17.3658290345
-65.3243018733
-126.777125688
-201.504664445
-285.324457464
-369.624042477
-443.903575713
-498.366899216
-526.049979864
-529.192173104
-503.869773872
-463.137346476
-419.316282242
-384.809337956
-368.975238406
-378.130196628
-419.163682955
-501.830696198
-630.41906155
-812.368364079
-1030.60409863
-1263.03149729
-1471.39842693
-1605.08138003
-1599.53305974
-1469.55718807
-1177.1096777
-751.255028118
-251.201093754
101.596976692
107.45163546
113.037922416
118.367113505
123.436684937
128.234305485
132.740956004
136.948107997
140.860602697
144.486221566
147.820274278
150.8494646
153.569344661
156.007010212
158.166121772
160.027907219
161.597588517
162.92527164
163.990154308
164.782991897
165.334813107
165.680613681
165.839608664
165.830601639
165.681225677
165.411417599
165.044118154
164.598498401
164.089903106
163.527216535
162.908220097
162.215459574
161.415024904
160.460395594
159.292054331
157.835174899
155.997250639
153.66735346
150.717978646
146.997515605
142.324081898
136.479787438
129.207450041
120.219835115
109.221816574
95.9363282738
80.1090310869
61.4492439993
39.4667826036
13.2054778292
-19.0364746797
-59.8329526603
-112.17960411
-178.790195304
-257.807923599
-348.470546344
-441.796352804
-526.889856206
-592.762332146
-630.569812282
-636.644841672
-612.633329454
-565.954778935
-508.567010521
-454.900005205
-416.388780233
-400.65031521
-413.25821112
-461.369843103
-552.013628306
-687.987576857
-859.274984862
-1046.87512208
-1220.3745463
-1338.34490031
-1332.89272714
-1234.57435709
-999.582845516
-651.209599414
-220.445963748
148.694417513
153.674671165
158.225590439
162.398333158
166.184759199
169.581070859
172.554599017
175.090642445
177.238242404
179.025878454
180.502103988
181.512514682
182.07871383
181.952732524
181.755449077
181.347457927
180.479293618
179.243833397
177.732532816
175.96755823
173.967651441
171.772176779
169.429953529
166.975851047
164.430713018
161.856271228
159.319341647
156.777885471
154.285475961
151.927019811
149.741102181
147.726325638
145.852900541
144.065174222
142.278465661
140.38277992
138.249039018
135.717423934
132.618433679
128.758317496
123.912642301
117.825558598
110.208962412
100.755685026
89.164058794
75.1601894875
58.490414701
38.8540750129
15.7535428692
-11.7463610953
-45.3171149113
-87.3023885467
-140.623312118
-207.358140939
-286.489621483
-378.3934856
-474.274456944
-564.517169315
-638.776525604
-686.888482391
-702.366387401
-682.528668147
-630.411133134
-561.490646423
-490.842848506
-429.483573199
-388.337745215
-372.560334251
-387.510262247
-439.133225025
-529.789304692
-652.926327918
-793.785709715
-929.42040374
-1028.76428646
-1025.68032317
-960.073132655
-785.884998578
-522.54856731
-179.136978037
209.184446056
212.848153456
215.924025785
218.483329177
220.577508808
222.237073234
223.359635979
223.355666233
222.952819271
222.517283013
221.490150987
219.700671217
217.414111362
214.677338912
211.473239269
207.803382992
203.696364641
199.195941698
194.349062939
189.206871763
183.832292307
178.289386643
172.665681768
167.035535074
161.400952184
155.905433028
150.66527934
145.765818935
141.265053906
137.192288813
133.539060209
130.268655065
127.328173367
124.654041029
122.175138148
119.833375723
117.494558269
115.047537177
112.321328652
109.085789096
105.01633325
99.7322265765
92.8723126556
84.1030098678
73.1158510332
59.6328766208
43.3919925309
24.0867218357
1.2863930646
-25.7314537124
-58.5898317346
-99.5441382977
-151.32518115
-214.592251931
-291.620947795
-379.244121854
-471.487007406
-560.500045711
-637.044153756
-689.496299264
-709.414233548
-694.890887741
-645.872227177
-571.63892846
-487.04545544
-408.645335725
-345.393998529
-303.858453443
-289.121042031
-305.952734498
-356.306579937
-436.136406207
-534.831705513
-635.871088361
-717.143218106
-721.181884237
-683.522365241
-567.241928048
-385.382856142
-131.350002147
295.397773555
295.139574533
294.530666457
293.624554458
292.236181257
289.780038887
286.497842397
282.497143056
277.772216447
272.379902785
266.491584104
260.163655644
253.344222841
246.054580408
238.350528605
230.254852169
221.723003595
212.714945223
203.256288182
193.408805829
183.244612307
172.847126286
162.312557292
151.768918008
141.370562936
131.225608722
121.459901425
112.358357461
104.320793548
97.8331337681
93.1741829649
90.1965825523
88.5752459544
87.9435440525
87.6633101125
88.2418677416
88.2181794504
88.1808413925
87.9217931114
87.4372327878
86.1897799452
83.503608188
79.0195083797
72.3523230369
63.2232448567
51.4322034776
36.7847196549
18.79591942
-2.69298649479
-28.5219865039
-59.7068820398
-97.2677025652
-143.001860206
-199.048688597
-267.318053791
-343.11514189
-427.012664912
-510.236250802
-583.402219002
-637.003705165
-662.888143187
-656.532652818
-616.469310223
-544.445098917
-453.830282304
-361.322910144
-280.133607421
-216.666953705
-176.71728824
-164.733466208
-181.964518913
-226.440812416
-290.595314672
-362.679502703
-426.357687286
-449.152103544
-429.181241561
-364.856167951
-255.808702545
-84.7480876474
375.357681344
373.237953788
369.625842661
365.077920099
359.637645753
353.134725679
345.573281267
337.045725522
327.582039614
317.198202545
305.881326619
293.604124207
280.407669623
266.41230332
251.708716929
236.37802143
220.567740452
204.455042262
188.175163964
171.83291327
155.536407802
139.411683012
123.548619137
108.170456691
93.6800395103
80.2407622188
68.0035419372
57.1266382012
47.5706499521
39.1855829353
32.0273164986
26.541946848
23.0057198209
21.4792440037
21.4454512411
25.1640871518
30.394044841
36.4440229104
42.6381622385
48.4588608408
53.4117517508
56.949962512
58.5233433675
57.6058998902
53.7275191401
46.5849886496
35.9486001933
21.8559638473
3.79768781819
-18.619016743
-46.0269009318
-79.6524326065
-120.44127026
-170.267549548
-229.568897655
-295.210759016
-368.282650021
-442.600590137
-511.121135388
-566.136792536
-598.642816453
-597.232956144
-563.232961623
-492.469712754
-396.356803169
-292.285390203
-199.553741745
-119.522371566
-60.6626299244
-27.1578890539
-17.8716072832
-36.3751144938
-75.1041612869
-125.591031394
-176.996094062
-213.788538667
-212.648882823
-190.496097898
-143.256686178
-39.8392835661
351.189667062
371.236552434
388.115677384
402.080471616
413.292324582
421.869958681
428.057642245
432.158107248
433.49006449
432.830223517
431.140645031
426.881020674
420.822531716
380.811410026
399.234309524
414.533077912
426.921200105
436.527811686
443.476705883
448.094040856
450.525527486
450.0299513
448.517190827
445.054986482
439.186913227
431.808402699
403.962674531
421.055180393
435.080284323
446.247505255
454.671085802
460.528623393
464.263221557
464.893267086
463.998693824
461.623046004
456.602196925
449.536427553
441.106629935
425.929934518
441.665939371
454.386393744
464.251828626
471.395746802
476.048786603
478.432593013
477.828469026
476.147382614
471.94170366
465.378266607
456.962875195
447.115371681
446.747751211
460.904711503
472.086657808
480.45308226
486.172246529
489.599734872
489.636428069
488.432057348
484.990644206
478.943240986
470.815574084
460.621784221
449.303943529
465.167701206
477.577767883
487.063881569
493.77717829
497.889204918
499.409430715
498.426873632
495.482982629
489.981508314
482.080755466
472.489143288
460.813109347
446.936963034
480.547729758
491.119260869
498.838673078
503.850752289
506.297175157
505.881073591
503.473619352
498.422221357
491.175152878
481.624558375
469.536914447
455.702709946
440.206388083
492.7149051
501.506661771
507.446498239
510.722649616
510.971686098
508.937595301
504.506808704
497.483983715
487.859298543
476.106411345
462.248218146
446.496749374
429.108705869
502.054723361
509.058101464
513.140690309
514.315849267
512.710484151
508.514035062
501.530543523
492.196428866
480.532757668
466.695022083
450.798164878
433.011467136
413.706859972
509.182584986
514.158999945
516.009082968
514.958272193
510.901843944
504.103017431
494.869342825
483.279286522
469.402536867
453.384867642
435.407094602
415.688844004
394.657584211
514.24605247
516.857201319
516.376976573
512.632179292
505.882964298
496.686629046
485.067103645
471.105324336
454.952869187
436.791748462
416.83947136
395.35435003
372.811729819
517.574118105
517.583133529
514.283426326
507.703438842
498.550055257
486.871735765
472.771000426
456.430458179
438.040342291
417.805299734
395.986348442
372.901210315
349.071374652
519.117046064
516.494592385
510.385986657
501.381846579
489.697395062
475.472417502
458.914432513
440.237307695
419.650536123
397.39425165
373.790202217
349.230535171
324.288122549
519.370054341
514.287266988
505.825761038
494.357847803
480.15463545
463.458338989
444.508795834
423.53426812
400.773614781
376.512959598
351.133631227
325.104584707
299.13240168
519.460678747
511.861673531
501.266375447
487.490730928
470.921797213
451.898652435
430.659483099
407.431162984
382.467891448
356.078404959
328.716227998
300.987518014
273.689917842
519.808142535
510.037712167
497.235693256
481.560238223
462.912738849
441.764815589
418.344266362
392.861671146
365.549995721