/*--------------------------------*- C++ -*----------------------------------*\
  =========                 |
  \\      /  F ield         | OpenFOAM: The Open Source CFD Toolbox
   \\    /   O peration     | Website:  https://openfoam.org
    \\  /    A nd           | Version:  7
     \\/     M anipulation  |
\*---------------------------------------------------------------------------*/
FoamFile
{
    version     2.0;
    format      ascii;
    class       surfaceScalarField;
    location    "1";
    object      phi;
}
// * * * * * * * * * * * * * * * * * * * * * * * * * * * * * * * * * * * * * //

dimensions      [0 3 -1 0 0 0 0];

internalField   nonuniform List<scalar> 
14892
(
16.4158179362
0.0223234864716
16.4132559798
0.0237304263724
16.4096015292
0.0251620292907
16.4049950949
0.0265861515537
16.3993877683
0.0279864007708
16.3927401467
0.0293773076226
16.3850532592
0.030759994703
16.3764782744
0.0319948805891
16.3673357505
0.0329381437716
16.3574890635
0.0339549363772
16.3464215835
0.0352718612286
16.3339722544
0.0367283979142
16.3202691621
0.0383125086576
0.0415152432942
16.3040387698
16.2224284439
0.0450382548222
16.2175470566
0.0477785247025
16.2117764031
0.0504480052139
16.2051360319
0.0531045757666
16.1975750358
0.0557507573653
16.1890780079
0.0583880757816
16.1798135268
0.0608528046093
16.1699874351
0.062977399783
16.1593279116
0.065067603174
16.1474895951
0.0674956616197
16.1344301253
0.0702067434623
16.1202511325
0.0730295367483
16.1050359331
0.0760065555072
0.0821583353545
16.0874679166
15.9947735487
0.0679700602123
15.9874058455
0.0718778414326
15.9792312773
0.0756604747916
15.9702211508
0.0794325022403
15.9603637844
0.0831966588669
15.9498502774
0.0867651894144
15.9389023565
0.0899485171777
15.9271970926
0.0931017709261
15.9142539293
0.0966500745238
15.900064702
0.100520686097
15.8848515798
0.104505442783
15.8687642508
0.108506496325
15.8517802387
0.112677167637
0.121312326829
15.832814581
15.8264890884
0.0912257805284
15.8168752007
0.0961713529214
15.8064829807
0.100972105775
15.7953062875
0.105758150772
15.783561772
0.110319343872
15.7714915659
0.114456993162
15.7587200547
0.118597533232
15.7447315924
0.123205932956
15.7295460082
0.128163456459
15.7133871463
0.133234409784
15.6964081991
0.138312460432
15.678651835
0.143369505064
15.6602587406
0.148429143714
0.159165462181
15.6402341178
15.704774755
0.114827210541
15.6932315239
0.120732197335
15.6809550367
0.126464074557
15.6681844982
0.131937003161
15.6551340307
0.136958322619
15.6413745786
0.142052331188
15.6264332222
0.147711690799
15.6103849418
0.153717165851
15.5934411034
0.15980098568
15.5757134798
0.165889622127
15.5572507492
0.171952137734
15.5382760379
0.177777382958
15.5189987547
0.183388040478
0.196467210808
15.4978304505
15.6313157758
0.139320553266
15.6177233039
0.146060051238
15.6037738152
0.152346678926
15.5896276459
0.158200078939
15.5747167014
0.164164972332
15.5585234399
0.170806829637
15.541338578
0.177815538149
15.5234274967
0.184833315074
15.5048214284
0.191819111085
15.4855496629
0.198777275309
15.4658598086
0.205463626812
15.4460187023
0.211657520934
15.425541768
0.218136310871
0.23401066719
15.402715201
15.5931169395
0.16476269935
15.5780914117
0.171700121933
15.5627214807
0.178438886361
15.5463923735
0.185417822436
15.5287670499
0.19292921119
15.510172592
0.200823096111
15.4910056464
0.20868904849
15.4713060569
0.216486556381
15.4510564236
0.224238312266
15.4305166576
0.231688179853
15.4099130009
0.238622943206
15.3887275992
0.245661994392
15.3663990898
0.253656845115
0.272201501858
15.3419470771
15.5900116398
0.191025078544
15.5728129011
0.198420235663
15.5545532367
0.206362021008
15.5350170937
0.214841079592
15.5146072492
0.223506156299
15.4937587797
0.232137144499
15.4725391273
0.240678637933
15.4509850733
0.249087190262
15.4293502253
0.257164907743
15.4077954081
0.264759029104
15.385658027
0.272498253237
15.3623569475
0.281022276607
15.338216234
0.290275420499
0.31101678848
15.3124615399
15.6103579442
0.219454996507
15.5892080004
0.228307619074
15.5670676326
0.237551328771
15.5443844876
0.246882600361
15.5213771808
0.256153551368
15.4981263108
0.26532743324
15.4750057375
0.27405343857
15.4522895702
0.282283992352
15.4295435171
0.290531867193
15.4060790518
0.299063924058
15.3815438825
0.308168944156
15.3562898824
0.317703155006
15.3307419118
0.32755400605
0.350172952381
15.3038814112
15.6460400615
0.252512382541
15.6203691501
0.262449462573
15.5944607963
0.272199489859
15.5684969193
0.281838349342
15.5425479404
0.291341177022
15.5170159177
0.300342537958
15.4922660497
0.308525072672
15.4676913465
0.316768611931
15.4424134003
0.325887885362
15.4162333554
0.335601835893
15.3896114574
0.345480480966
15.3629629412
0.35533163331
15.3363294178
0.365465843577
0.389403956184
15.3089695223
15.6878220369
0.291119973342
15.65730525
0.301177717846
15.6270969144
0.310834990319
15.5972854104
0.32028018503
15.5682866222
0.329158656223
15.5403907902
0.337225697296
15.5127043126
0.345493006869
15.4844170077
0.354797910652
15.4557986043
0.364642765845
15.4273110938
0.374518157868
15.3991717579
0.384329347694
15.371424666
0.394060164414
15.344378865
0.40376161472
0.428430309267
15.3171745761
15.715527579
0.336094686412
15.6792202129
0.345463194951
15.6439246149
0.354375545058
15.610035121
0.362665422264
15.5777737533
0.370155615277
15.5460711332
0.377929322259
15.5140943478
0.386864231282
15.482432581
0.39633796524
15.4516110506
0.405713843516
15.4217045067
0.41493704886
15.392756372
0.424041519113
15.3650673725
0.432754695855
15.33877149
0.44129860784
0.46720631221
15.3119054949
15.7206533748
0.388653301815
15.6777544635
0.396434043849
15.6370278509
0.40344579807
15.598516834
0.409810357361
15.5611207803
0.416532220114
15.5240486364
0.424375389611
15.4879768321
0.432674124806
15.4535424137
0.440810646527
15.4208569613
0.448734133522
15.3899863522
0.456445013079
15.361221841
0.463723676195
15.3345304029
0.470651999339
15.3088282075
0.478532957124
0.505905162585
15.2824571406
15.6490888134
0.449922315283
15.5998845371
0.453831334052
15.5537411236
0.458040516814
15.5096109827
0.462904684071
15.4668748378
0.46870617017
15.4260399602
0.475003247763
15.3878228983
0.481039689191
15.352343879
0.486778244762
15.3201934936
0.491699477961
15.2913954849
0.496286399543
15.2649092136
0.501541229148
15.2397761216
0.507636585334
15.2155892971
0.515054557989
0.542427239577
15.1921576467
15.5033753225
0.518187970659
15.4469377607
0.518925730049
15.3926661771
0.52134544521
15.3410285859
0.524147662545
15.2933014505
0.526500227843
15.2504176829
0.528280753435
15.2123780878
0.529819765889
15.1793334332
0.530902175403
15.1508991959
0.531577516931
15.1257283882
0.53323116141
15.1027185217
0.536730586041
15.0818990453
0.541218839446
15.0637402295
0.546450847103
0.572085534132
15.0480522639
15.1496930571
0.600181257781
15.0823030788
0.595922059079
15.0216867875
0.591987145179
14.9685550063
0.587706387011
14.9227423414
0.583103506679
14.8838725904
0.57827146301
14.8517140965
0.573409039985
14.8255704221
0.568979436984
14.8038550836
0.565943343272
14.7855263009
0.56477455086
14.7712389259
0.564646225781
14.7616325032
0.564865033962
14.7565958971
0.565910050967
0.588152054306
14.7557192129
14.6090925068
0.688781556581
14.5408753623
0.67487707963
14.4835113028
0.660555408984
14.4368317071
0.646057109905
14.400781284
0.631263636052
14.3745607763
0.616969251036
14.355957491
0.604762180863
14.343396613
0.594793760997
14.3367629085
0.586607131894
14.3365968953
0.579555167625
14.3432059529
0.573055710172
14.3562691847
0.567219107933
14.3755245496
0.562445896245
0.580013493073
14.4001920838
13.67202376
0.766566117598
13.6198254059
0.738767477961
13.5824062954
0.710525629315
13.5580918475
0.683517435424
13.5446834304
0.65828297643
13.5401107708
0.63571153117
13.5435221562
0.616054437793
13.555050377
0.598369847858
13.5744497153
0.582645738931
13.6019250775
0.567939397366
13.6373421675
0.553927225214
13.6791096163
0.542016638577
13.7254102582
0.533202018521
0.548187046844
13.7754449287
12.3349017793
0.801374648387
12.3269094435
0.759445988899
12.3325622852
0.718496923275
12.3508548965
0.679813239166
12.3801739281
0.644365097767
12.420039416
0.611907725224
12.4716019288
0.581021374946
12.5349446275
0.551904001899
12.6098116588
0.52502802297
12.6962819312
0.499344136681
12.7936336894
0.475279992473
12.900709116
0.454232028644
13.0154153892
0.438323918871
0.447282061364
13.1373559878
10.0125500318
10.1025847089
0.678837339745
10.2027998357
0.627985138989
10.3132836662
0.579587981703
10.4339903829
0.534603852497
10.5654289866
0.49224588144
10.7067628081
0.452276501853
10.8556363417
0.416201547438
11.0099615615
0.38425181858
11.1667992729
0.356515559708
11.3231098975
0.33366590295
11.4763806409
0.316203597249
11.624842832
0.305465518541
11.7714807289
0.317241163043
16.2942808739
0.0282820548153
16.2819630383
0.0317899868876
16.2686587156
0.0334812494894
16.2545831247
0.035014936373
16.2396074609
0.0366691535683
16.2233908929
0.0385979026592
16.2057317165
0.0407209173732
16.1864918289
0.043040725313
16.1657199923
0.0455045014723
16.143451738
0.0480739819749
16.1196994766
0.0506198799532
16.0946610032
0.052989475701
16.0681530705
0.0555235564219
16.0397023594
0.0584046058247
16.0089988337
0.0615100683304
15.9758743794
0.0648967720141
15.9403983627
0.0684881862862
15.9025862466
0.0722048373842
15.862534689
0.0758596680541
15.8201844695
0.0795893334468
15.7753581778
0.0834309798654
15.7277713428
0.0875153636339
15.676772375
0.092190547702
15.6221083994
0.0972892657226
15.5639435979
0.102630474524
15.5022431313
0.10814159662
15.4367622274
0.11383476118
15.3673137285
0.119715268738
15.2937532065
0.125776686335
15.2159440816
0.132013532324
15.1337591391
0.138414922522
15.0470831402
0.144966278757
14.9558161072
0.151649320731
14.8598772836
0.158441249338
14.7592098015
0.165314072848
14.6537861939
0.172233773649
14.5436147456
0.179159495253
14.4287823043
0.186072177386
14.3093724312
0.192887430088
14.1854765352
0.199463049525
14.0574091439
0.205730450498
13.9255774165
0.21162982348
13.790407971
0.217050872437
13.6524776546
0.221854402337
13.5125185261
0.225875935015
13.3714478571
0.228919995987
13.2304016897
0.230756170151
13.090778815
0.231111874586
12.9542933857
0.229663157036
12.8230260041
0.226030391741
12.69949206
0.219766546487
12.5867120433
0.210356792237
12.4882861333
0.197210629412
12.4084596209
0.179672362587
12.3522869827
0.156922511321
12.3254770545
0.128296767561
12.3347253869
0.0927988519659
12.3876015189
0.0495456205922
12.4924825988
-0.00227928206951
12.6583940475
-0.0633324874899
12.8948055513
-0.134066286643
13.2110134313
-0.214315089768
13.615463672
-0.303236210178
14.1152049873
-0.399440062704
14.7118437319
-0.497492218671
15.4021022256
-0.592517075096
16.1802751642
-0.682096251604
17.0303790846
-0.755962011452
17.922399179
-0.800095038221
18.8176102687
-0.805799085008
19.6694781952
-0.765281947543
20.4259409366
-0.673035808762
21.0345668646
-0.528715063693
21.4499237095
-0.339347773318
21.6413549338
-0.119743875535
21.5983337196
0.109926352313
21.3345472821
0.325401113461
20.8825296225
0.507777889698
20.2942560035
0.637547076075
0.724953363317
16.0765555253
0.056072305736
16.0634127971
0.0627186863152
16.0493863636
0.0659499604645
16.0343346298
0.0691990715692
16.0180271724
0.0727718010077
16.0003665231
0.0767067257483
15.9813408154
0.0809221444165
15.9609473107
0.0853876971527
15.9391677487
0.0900780084507
15.9160880019
0.0948443540332
15.8917897226
0.0995299107097
15.8659616932
0.104378663702
15.8382833539
0.10970004799
15.8085959265
0.1154878624
15.7767084703
0.121715295993
15.7426111904
0.12835584991
15.7063244379
0.135322538447
15.6679220453
0.14240668057
15.6274803457
0.149389626157
15.5847554723
0.156712164125
15.5395099675
0.164375060517
15.4914191899
0.172559311506
15.4400243014
0.181678629483
15.385216444
0.191441850537
15.3270634052
0.201699576808
15.2654751257
0.212343293332
15.2002475677
0.223368984275
15.1312229283
0.234772511718
15.0582581124
0.246544072587
14.9812145403
0.258671361397
14.8999601078
0.271134931179
14.8143718586
0.283908859279
14.7243391477
0.296959887704
14.6297673735
0.310246038737
14.5305824176
0.323715221711
14.4267359496
0.337303516306
14.3182116303
0.350933431582
14.2050715987
0.364566876077
14.0873523843
0.378062663774
13.9650849009
0.391156406516
13.8385343782
0.403696640468
13.708055841
0.415562697119
13.5740172571
0.426541551063
13.4369306374
0.436362447383
13.2974563327
0.444704572419
13.1564323065
0.451185805382
13.014909768
0.455352704018
12.8741956563
0.456667576484
12.7359004071
0.454493799426
12.6019918059
0.448083361947
12.4748839806
0.436531990361
12.3574727969
0.41883302078
12.2533329328
0.393706598993
12.1667175593
0.359808024164
12.1027178156
0.315469423695
12.0675044819
0.258936569202
12.0681417013
0.188309723268
12.1127243677
0.101665112218
12.2104346624
-0.00291055997574
12.3715820349
-0.127210628338
12.6075991235
-0.272819826728
12.9303579526
-0.440021088024
13.3503766024
-0.626626901745
13.8754209337
-0.828504705459
14.5103813496
-1.03735416184
15.2527089608
-1.24087046411
16.0891166394
-1.42590791015
17.0000154624
-1.57590906083
17.9585051979
-1.66955697062
18.9235768102
-1.68406233485
19.8420715162
-1.59950156121
20.6540501823
-1.40360807455
21.2998871063
-1.09637521147
21.7294423126
-0.694346943138
21.9109974828
-0.230790539252
21.8381351662
0.248780800207
21.5287442874
0.69574951282
21.0235576784
1.06831149155
20.3793122764
1.33088215562
1.49403711256
15.8210529435
0.0825440416986
15.8070968147
0.0922032130783
15.7919981504
0.0971352093606
15.7756140227
0.102230006431
15.7578914757
0.107724643888
15.7389018344
0.113572629118
15.7186872391
0.119727719954
15.6972395899
0.126176445981
15.674646913
0.132780523286
15.6510125343
0.139379555532
15.6260121184
0.146246338052
15.5992050749
0.153719717593
15.5704631228
0.161791336205
15.5397273849
0.170428685099
15.5069871042
0.179605013142
15.4722753266
0.189239287246
15.4356999236
0.199126122423
15.397351768
0.209052049626
15.3567707743
0.219357475391
15.3137368431
0.23030091316
15.2681154675
0.241818006016
15.2194906637
0.25421569353
15.1677274801
0.267578877868
15.1128280999
0.281699048085
15.0548052439
0.296469393882
14.9934976238
0.311829179157
14.9287251576
0.327776916107
14.8603397396
0.344301805975
14.7881932551
0.361391920791
14.7121391433
0.379029229429
14.6320342319
0.39718826598
14.5477409219
0.415835141631
14.4591297482
0.434925878608
14.3660824094
0.454404527518
14.2684954302
0.47420106548
14.1662845169
0.494228933469
14.0593900756
0.514382079513
13.9478267434
0.534608328884
13.8315648656
0.554730873151
13.7105494027
0.574387056602
13.5849571975
0.593346650749
13.4550461369
0.611435190856
13.3210730339
0.628350494442
13.1834244001
0.643706285328
13.0426202759
0.657041668619
12.8993441507
0.667803527646
12.7544790956
0.675330870892
12.6091531594
0.678832705901
12.4647916413
0.677366476058
12.3231908639
0.669804022082
12.1865836238
0.654795154644
12.0577778252
0.630748461216
11.9402141988
0.595741398046
11.838108358
0.547644345738
11.7566376487
0.483817530505
11.701880806
0.401595077275
11.6813791007
0.297604398897
11.7044974875
0.168087696444
11.7830979184
0.00862431854045
11.9314609521
-0.18500804919
12.1642487172
-0.41478612418
12.4936296367
-0.67850963317
12.9274136893
-0.969643288591
13.4691608919
-1.27981551346
14.1218940937
-1.60020019179
14.8896073371
-1.91947574495
15.771986027
-2.22020078028
16.7588611962
-2.47597766768
17.8246610931
-2.65010248698
18.9239390462
-2.69992891471
19.9911713704
-2.58547687861
20.945633099
-2.27930230101
21.7032118958
-1.77803886298
22.194046959
-1.11251447416
22.3791514753
-0.346908314412
22.2595951273
0.433165557165
21.869060358
1.14642489067
21.2640422968
1.72819191375
20.5259365001
2.11790549683
2.32246756441
15.6272996584
0.108414633311
15.6119050295
0.121256162327
15.5952802285
0.127938680307
15.577438113
0.134759708911
15.5584269596
0.141967955375
15.5382999564
0.149543364024
15.517018796
0.157481952328
15.4946834668
0.165639864287
15.4714341002
0.173845143074
15.4469355801
0.182405851184
15.4207322213
0.191711451364
15.3927129285
0.201739888645
15.3628408876
0.212430047846
15.3311165086
0.223756104883
15.2975807015
0.235641177784
15.2623616733
0.247875612759
15.2255723571
0.260246761638
15.1867434213
0.273125142642
15.1453360302
0.286969164534
15.1015049409
0.30141501169
15.0551154897
0.316634964938
15.0057593007
0.333075948793
14.9533823607
0.350550508433
14.8980164721
0.368909019151
14.8396142746
0.388035982393
14.7779886877
0.407931488997
14.7129766969
0.428603546835
14.6444231065
0.450047078368
14.5721695931
0.472252854578
14.4960558668
0.495204008829
14.4159210151
0.518874998856
14.3316050155
0.54322995594
14.2429505319
0.568220770946
14.14980508
0.593784852898
14.0520236892
0.619842521706
13.9494722087
0.646293897671
13.8420313179
0.67301523713
13.7296476166
0.699950031101
13.6122096624
0.726899408559
13.4895599942
0.753423591081
13.3617585835
0.779232701376
13.2289309434
0.804114926019
13.0911799323
0.827699300923
12.9487171437
0.849506492873
12.8018625551
0.868961903755
12.6510726446
0.885369674858
12.4969750029
0.897891078391
12.3404137179
0.905511612902
12.1825135426
0.907000654795
12.0247562057
0.900865282762
11.8690731467
0.885297441825
11.7179499066
0.858143121921
11.5744596771
0.816883306901
11.4424963725
0.758558530077
11.326942131
0.679531384812
11.2343966842
0.575408733283
11.174959153
0.439308683051
11.1610466742
0.265145272981
11.2062986442
0.0472652160646
11.3210369573
-0.215246909155
11.5087384432
-0.517533626218
11.769113885
-0.853639787374
12.1081697925
-1.22333738086
12.545776416
-1.63213059811
13.1130342138
-2.08243618447
13.8405132561
-2.56241564244
14.7439945072
-3.0398530079
15.8193247507
-3.46843237812
17.0367134675
-3.78583019404
18.3421452065
-3.92519507534
19.6571756669
-3.82214072328
20.880611138
-3.42649963778
21.896817451
-2.72049508166
22.5953548887
-1.74018426164
22.8991424087
-0.583145478878
22.803014314
0.593044939994
22.3455745771
1.66328050062
21.6115563412
2.51668970216
20.7261100673
3.05220978108
3.26504151458
15.4836124069
0.134286830957
15.4669857632
0.150224602847
15.4492951211
0.158479001387
15.4305646649
0.166842911965
15.4107975658
0.175603311136
15.3899725981
0.184785245387
15.3681871166
0.194241005478
15.3455924805
0.203791455347
15.321811142
0.213777618522
15.2963666843
0.224649282598
15.2692460904
0.236371951097
15.2404377533
0.248817970056
15.2098939639
0.261960206259
15.177663359
0.275754179214
15.1439035153
0.289985283316
15.1087430306
0.304438020654
15.0716932394
0.319518833538
15.0320957143
0.335801612133
14.990135332
0.352984410202
14.9459066834
0.37076989762
14.8989831358
0.389707345067
14.8491721843
0.410021653918
14.7964709492
0.431446584068
14.7408780233
0.453841720729
14.6822465217
0.47717841003
14.6203917623
0.501481321593
14.5551525895
0.526759015586
14.4863607142
0.553014177765
14.4138412091
0.580242975521
14.3374131512
0.608433684465
14.2568902681
0.637565158758
14.1720816981
0.667604962443
14.0827929375
0.698507265334
13.988827056
0.730210320026
13.8899862601
0.762633490542
13.786073893
0.795673695777
13.6768969621
0.829201208634
13.5623171975
0.863167732516
13.4421226415
0.897367605146
13.3160344372
0.931304046478
13.1839732166
0.964649231428
13.0459034368
0.997177185824
12.9017388039
1.02847541659
12.7514702008
1.05800443488
12.5951605196
1.08511343899
12.4329672305
1.10900691712
12.2651822205
1.12870632395
12.0922697558
1.14301903415
11.9149475068
1.15045491641
11.7342276676
1.14922006225
11.5514265137
1.13719550328
11.3681972882
1.11188306408
11.18672109
1.07022830382
11.0106403707
1.00780246565
10.8457892423
0.918768173747
10.7015179617
0.795207466649
10.5874736392
0.62993254351
10.5102302191
0.419921175341
10.4670443616
0.168827530592
10.4481187465
-0.117220074539
10.452623587
-0.442342390958
10.5084300963
-0.829296465419
10.6757099858
-1.31016655905
11.023035165
-1.89886951911
11.5977288547
-2.5765866892
12.4122635795
-3.29664317891
13.4525432348
-4.0002699603
14.6814139008
-4.6181104498
16.0546442329
-5.08078274758
17.5194342544
-5.31288833488
19.0084480522
-5.2355294256
20.4326936625
-4.77691050273
21.6788131593
-3.89492119193
22.6173267517
-2.60953420119
23.1420090613
-1.04162538757
23.1798945394
0.617919538702
22.7418489778
2.16010614138
21.9398503413
3.3728848433
20.9185710741
4.12240661987
4.33881371988
15.3871166087
0.160457610784
15.3693498435
0.179282714321
15.3506496803
0.188955591476
15.3310212509
0.198732676817
15.3104151263
0.208969595857
15.2889588579
0.219527307595
15.2668113234
0.230225525649
15.2435778396
0.241427290109
15.2186945216
0.253618846561
15.1921530586
0.266775579132
15.1641264832
0.280717890116
15.1345870151
0.295381208614
15.1034756206
0.310757600262
15.0709655179
0.326655405238
15.0372211506
0.342854909263
15.001730306
0.359797767587
14.9638105744
0.378092151738
14.9235242541
0.39761767396
14.8812658758
0.417772800998
14.8366684189
0.438887309842
14.7892198357
0.4615563437
14.7389865273
0.485587030477
14.6860104556
0.510777447607
14.6301699519
0.537077753445
14.5712787329
0.564527954799
14.5091601599
0.593152049637
14.4436387417
0.622964406224
14.3745289185
0.653975794317
14.3016350868
0.68619073486
14.2247515523
0.719606191454
14.1436623836
0.754209860994
14.0581413038
0.789978249395
13.967951657
0.826874436699
13.8728464915
0.864845406248
13.7725687852
0.903818906279
13.6668518517
0.943699697459
13.555419974
0.984365108022
13.4380378035
1.02579070561
13.3143779982
1.06778232098
13.1840244859
1.10980668908
13.046737904
1.15152323396
12.9022930609
1.19272315489
12.7503765284
1.23298953499
12.5907097682
1.27176609807
12.4230413162
1.30837180918
12.2471725317
1.34195431
12.0629892245
1.37144632473
11.8705015702
1.39552630118
11.6697611373
1.41265785115
11.4608361596
1.4210252213
11.2438388011
1.41845999849
11.0193755251
1.40196384365
10.7901352573
1.36639361887
10.5614086244
1.30471224485
10.3408908387
1.20867072951
10.1323123818
1.0743083853
9.92769733334
0.90613590284
9.70759524448
0.712597196422
9.45869307621
0.49120012858
9.20685165083
0.208889711793
9.03537276596
-0.195905822783
9.05441493777
-0.772810947173
9.34287801165
-1.52266271354
9.92016284056
-2.39989130727
10.7538779442
-3.33389909272
11.7922203014
-4.25861421175
12.9884247832
-5.12032157378
14.3066679261
-5.86062409543
15.7164688847
-6.41550251186
17.1834251333
-6.70565930236
18.6603903743
-6.63947881905
20.0836878344
-6.12866487802
21.3719872322
-5.11348805668
22.419265239
-3.58926793062
23.078852753
-1.63628068724
23.2093254951
0.549290539604
22.8244546185
2.60319777243
22.0406670391
4.21067493846
20.9620933825
5.25009067357
5.50226462947
15.3254029297
0.186812940274
15.3068619801
0.208353189187
15.2874686514
0.219334122874
15.2672258493
0.230414391983
15.2462646643
0.241832203315
15.224712926
0.253474761216
15.2021615777
0.265699545101
15.1780387116
0.279001120078
15.1523181292
0.293332888156
15.1251924146
0.308500243481
15.0967338751
0.324425724697
15.0668965201
0.341111598648
15.0358106839
0.3583771332
15.0036523097
0.376001253048
14.9698959428
0.394460435777
14.9338389445
0.414393245992
14.8954358591
0.435784417649
14.8551506273
0.458040695824
14.8129727557
0.481012524335
14.7682720819
0.505504037083
14.7208085602
0.531748066982
14.6706927321
0.559364076515
14.6178850783
0.588263756174
14.5622000346
0.618471352831
14.5034595282
0.650024634533
14.4414831099
0.682954784281
14.3760775879
0.717290692668
14.3070367243
0.753056455924
14.2341407429
0.790270363772
14.1571556123
0.828943513925
14.0758322253
0.869078259362
13.9899055233
0.910666382368
13.8990935595
0.953686949745
13.8030964914
0.998103743866
13.7015954794
1.04386224183
13.5942514945
1.09088597678
13.4807040149
1.13907221588
13.3606171713
1.18843736315
13.2335445087
1.23881807086
13.0989303239
1.28966380954
12.9563687411
1.34064881971
12.8054323726
1.39161896092
12.6455654881
1.44219336441
12.4762091398
1.49183781739
12.2967948682
1.5398785844
12.1067502523
1.58546418701
11.9054564486
1.62757051077
11.6921177266
1.66504942157
11.4656640964
1.69663508587
11.2249187588
1.72061459956
10.9697328612
1.73378735858
10.7026984165
1.73040960332
10.4288588347
1.70288190042
10.1514185203
1.64600090384
9.86194978964
1.56314402611
9.53583652424
1.46653288713
9.14703275583
1.36210141204
8.70423626099
1.22354262809
8.28556871257
0.978932780249
8.02307241316
0.541287897251
8.03756875748
-0.139751939055
8.37642025496
-1.0403621562
9.00451329368
-2.07891441602
9.84496887541
-3.16808526811
10.8314349901
-4.24781700468
11.9244617163
-5.27895419609
13.1045244971
-6.22772312801
14.3696497816
-7.05329574201
15.7111676645
-7.68497686556
17.1023918371
-8.02547595869
18.497164326
-7.96373264463
19.8318607279
-7.3940155235
21.0258620368
-6.2396369032
21.9851328056
-4.4825423274
22.6112200478
-2.19863993032
22.82934232
0.392158406118
22.5591390012
2.93112086917
21.8198892159
5.0037878743
20.7447835618
6.37464122457
6.70205725957
15.2950847467
0.213487609764
15.2757864777
0.237637518402
15.2558909128
0.249635848074
15.235570698
0.261536832499
15.2145667547
0.273993611487
15.1924459018
0.287213607386
15.1689043418
0.301452578307
15.1439406766
0.316726082501
15.1177044956
0.332844972346
15.0902813292
0.349775248343
15.0616499716
0.367519461186
15.0319526093
0.385888361634
15.0013700595
0.404665096516
14.9693489007
0.424362098929
14.9351654946
0.445643352188
14.8987924467
0.468477300972
14.8606751693
0.492365986884
14.8210054627
0.516970122059
14.7791428528
0.542968279608
14.7346447018
0.570940885027
14.6876454042
0.600573971137
14.6381198933
0.63164555154
14.5859164772
0.664166064861
14.5308599228
0.698190359056
14.4727697553
0.733764406238
14.4114510087
0.770934951548
14.3466934294
0.809745195851
14.2782706968
0.850234436837
14.2059394696
0.892437177462
14.1294381939
0.9363818453
14.0484857573
0.982089384518
13.9627799768
1.02957159053
13.8719958759
1.07882917827
13.7757837058
1.12984948234
13.6737666494
1.18260376784
13.5655381218
1.23704401277
13.4506584632
1.29309920748
13.3286957678
1.35084430443
13.1990886385
1.41016733774
13.0611475218
1.47051859279
12.9143053833
1.53161283826
12.7579469338
1.59337907425
12.5913094319
1.65549297399
12.4136057776
1.71746383393
12.2239872635
1.77867816683
12.0214010606
1.83848637301
11.8043397362
1.89631660703
11.5707869098
1.95152721979
11.3188287275
2.00274722346
11.0482574739
2.04655475805
10.7618266848
2.07678492266
10.462935
2.08704554758
10.1479057053
2.07680894456
9.79691938948
2.05701051401
9.37782807187
2.04335189764
8.87255740484
2.03397630836
8.317542686
1.98030276296
7.81961295995
1.78562473663
7.52486185597
1.33874747683
7.54251230763
0.589550619273
7.88876765178
-0.419314007796
8.4888829685
-1.57308228299
9.2507723216
-2.77279453991
10.1088817694
-3.95767013704
11.0302716128
-5.10027773751
12.0176202635
-6.1970936961
13.0852747805
-7.22602845896
14.2429087763
-8.14159823845
15.486570246
-8.85950262129
16.7889690589
-9.25913653195
18.0971848633
-9.2038368469
19.3394177013
-8.56902471649
20.4359217779
-7.27010439478
21.3074238684
-5.28953856094
21.882563846
-2.71120134113
22.0831987557
0.251714547658
21.8482641129
3.22332020012
21.1830345559
5.72271757989
20.1630422079
7.44400429955
7.88331305839
15.2859197468
0.240195226177
15.2663645957
0.266632386403
15.2465407085
0.279315907376
15.226123984
0.292212358651
15.2045030433
0.306232833348
15.1814584071
0.32135087722
15.1572390792
0.337387167824
15.1320241842
0.354233925604
15.1057871271
0.371895855169
15.0785154038
0.390419940907
15.0503866367
0.409613957653
15.0215840449
0.429265959983
14.991529819
0.449921153155
14.9594990823
0.472257279926
14.9254905379
0.496217438575
14.8899635908
0.521289343449
14.8532070122
0.547147370753
14.8145727736
0.574401170881
14.7734069233
0.603750475994
14.7298550894
0.634979024861
14.6840447656
0.667758926598
14.6358319855
0.702106918194
14.5850214946
0.738101540734
14.5314337552
0.775807271009
14.4748731098
0.815285617091
14.4151273887
0.856597275212
14.3519668229
0.899801081703
14.2851428929
0.944953407865
14.2143870317
0.992107180719
14.1394091542
1.04131076237
14.0598960067
1.09260670324
13.9755093038
1.14603028862
13.8858835859
1.20160789226
13.7906237106
1.25935506029
13.6893017827
1.31927440583
13.5814531508
1.38135335894
13.4665710309
1.44556187051
13.3441398025
1.51205034375
13.2135011106
1.58077447969
13.0738672502
1.65118697981
12.9245601064
1.72305168327
12.764852988
1.79638240297
12.593853052
1.87093269119
12.410547617
1.9463506237
12.2135792636
2.0223669002
12.0009564546
2.09896458872
11.7702662576
2.17599177795
11.5195270707
2.25237396369
11.2484412661
2.32505455482
10.9596264018
2.38769474296
10.6541693986
2.4356583285
10.3236099074
2.47209826828
9.9430427526
2.51292930233
9.47931195028
2.57733494349
8.91999039704
2.66028490533
8.30962685843
2.70294308106
7.76165221127
2.58784245948
7.41891785946
2.18885154416
7.37509983737
1.4439459043
7.62736054455
0.399513080511
8.09841641239
-0.82735563984
8.71079396882
-2.12171362882
9.40610672967
-3.40369662895
10.1617974604
-4.64836285504
10.9745937318
-5.84757677293
11.8437483027
-7.00035256626
12.7852678084
-8.10136916118
13.8125972345
-9.10259808595
14.9249857204
-9.90556290475
16.0983201811
-10.3663196101
17.2831502661
-10.3228953104
18.4089930386
-9.62971114237
19.396798984
-8.19364344177
20.1744244198
-6.00410665969
20.6777829296
-3.15308706793
20.8536787432
0.135264800289
20.6574476436
3.47643961691
20.0843858878
6.34943992307
19.1725128482
8.40536744964
8.97020160661
15.2912786088
0.266274626685
15.27198182
0.294931742202
15.2518381749
0.308881205814
15.2305680429
0.323449047836
15.2081828789
0.339072360794
15.18489344
0.355548557428
15.160856458
0.37284658355
15.1360752468
0.390972144069
15.1104852465
0.409977993763
15.0842701713
0.429680030612
15.0576180476
0.449891618948
15.0299315389
0.471198542392
15.0004849668
0.494279004935
14.9693318505
0.519035678151
14.9369739812
0.544930901112
14.9036778008
0.571641247565
14.8687584409
0.599819015176
14.8314540546
0.630214677982
14.7919239787
0.662611169178
14.7504147101
0.696661007687
14.7068073476
0.732383913967
14.6609061916
0.769877807436
14.6125210371
0.809224359605