/*--------------------------------*- C++ -*----------------------------------*\
  =========                 |
  \\      /  F ield         | OpenFOAM: The Open Source CFD Toolbox
   \\    /   O peration     | Website:  https://openfoam.org
    \\  /    A nd           | Version:  7
     \\/     M anipulation  |
\*---------------------------------------------------------------------------*/
FoamFile
{
    version     2.0;
    format      ascii;
    class       pointVectorField;
    location    "1";
    object      pointDisplacement;
}
// * * * * * * * * * * * * * * * * * * * * * * * * * * * * * * * * * * * * * //

dimensions      [0 1 0 0 0 0 0];

internalField   nonuniform List<vector> 
15458
(
(-0.0502571988905 0 0)
(-0.0507711899232 0 0)
(-0.0512813919669 0 0)
(-0.0517890623325 0 0)
(-0.0522940712741 0 0)
(-0.0527962828194 0 0)
(-0.053295556455 0 0)
(-0.0537917503492 0 0)
(-0.0542847215476 0 0)
(-0.0547754236205 0 0)
(-0.0552646651218 0 0)
(-0.0557509289065 0 0)
(-0.056232848438 0 0)
(-0.0567103764633 0 0)
(-0.0571527010998 0 0)
(-0.0502757620501 0.0548331567664 0)
(-0.0507926297757 0.0554428214633 0)
(-0.0513057544509 0.0560452357305 0)
(-0.0518163870803 0.0566404268751 0)
(-0.0523243880726 0.0572280804654 0)
(-0.0528296152844 0.0578079879567 0)
(-0.0533319234222 0.0583799363011 0)
(-0.0538311661558 0.0589437315738 0)
(-0.0543277545778 0.05950149442 0)
(-0.0548225826616 0.0600571645158 0)
(-0.0553152957075 0.0606080970149 0)
(-0.0558044430262 0.061149631601 0)
(-0.0562892692906 0.0616809414443 0)
(-0.0567697181743 0.0621997878832 0)
(-0.0572147789445 0.0626749632642 0)
(-0.0503307698324 0.105568162669 0)
(-0.0508562323716 0.106741776366 0)
(-0.0513780408018 0.107901806097 0)
(-0.0518974291565 0.109048747871 0)
(-0.0524142442022 0.110182091705 0)
(-0.0529283338768 0.11130138477 0)
(-0.0534395446347 0.112406202417 0)
(-0.0539482933346 0.113498811734 0)
(-0.0544554813619 0.114583599469 0)
(-0.05496073461 0.115659306089 0)
(-0.0554625783068 0.11672007773 0)
(-0.0559602428384 0.11776275712 0)
(-0.0564535766985 0.118786175248 0)
(-0.0569425020702 0.119786676357 0)
(-0.0573954514347 0.120703814505 0)
(-0.0504233957542 0.151284551507 0)
(-0.0509628594744 0.152972739045 0)
(-0.0514987702112 0.154642064782 0)
(-0.0520323346721 0.156293585458 0)
(-0.0525633901026 0.157926636523 0)
(-0.0530917760454 0.159540568711 0)
(-0.0536179179417 0.161137782208 0)
(-0.0541427286989 0.162723054836 0)
(-0.0546657965861 0.164294677102 0)
(-0.0551855856191 0.165845683 0)
(-0.0557012970781 0.167372287435 0)
(-0.0562127687863 0.168873209813 0)
(-0.0567198399659 0.170347161401 0)
(-0.0572224115518 0.171789664226 0)
(-0.0576886310771 0.173115992654 0)
(-0.0505582238811 0.192620267572 0)
(-0.051116769161 0.19478906835 0)
(-0.0516718618515 0.196934417804 0)
(-0.052224675582 0.199057731177 0)
(-0.0527750393313 0.2011582221 0)
(-0.053323390598 0.203238479481 0)
(-0.0538706625318 0.20530373648 0)
(-0.0544164016363 0.207351722239 0)
(-0.0549589930631 0.209374184188 0)
(-0.0554975998856 0.211366711543 0)
(-0.0560320485143 0.213327833851 0)
(-0.0565621690672 0.215256201269 0)
(-0.0570877942346 0.21715066775 0)
(-0.0576094079397 0.219009341876 0)
(-0.0580943470683 0.22072404125 0)
(-0.050742670234 0.230191939313 0)
(-0.0513250629172 0.232819661665 0)
(-0.0519041275946 0.235419858674 0)
(-0.0524809909672 0.237994180797 0)
(-0.0530560910404 0.240545407303 0)
(-0.0536303700912 0.243079225082 0)
(-0.0542033308355 0.245592899814 0)
(-0.0547732770838 0.248076735406 0)
(-0.0553393228951 0.250525519407 0)
(-0.0559012751061 0.252937704272 0)
(-0.0564589494811 0.255311819241 0)
(-0.0570121695682 0.25764672935 0)
(-0.0575613849544 0.259944876394 0)
(-0.0581075733945 0.262206847304 0)
(-0.0586150666562 0.264291855593 0)
(-0.0509859293986 0.264546485274 0)
(-0.051596850961 0.267619490342 0)
(-0.0522046384394 0.270662508861 0)
(-0.0528109540872 0.27368102978 0)
(-0.0534167134305 0.276679862302 0)
(-0.0540213587241 0.279655887854 0)
(-0.0546230987248 0.282598185568 0)
(-0.0552210042109 0.285500680752 0)
(-0.0558148728795 0.288361706194 0)
(-0.0564045055989 0.291179808887 0)
(-0.0569897091656 0.293953766364 0)
(-0.0575709451626 0.296686403811 0)
(-0.0581491824125 0.299383385282 0)
(-0.0587238730016 0.30203635326 0)
(-0.0592563922487 0.304473326569 0)
(-0.0512974643346 0.296169388603 0)
(-0.0519422615177 0.299685978362 0)
(-0.0525855401474 0.303178450958 0)
(-0.0532278088717 0.306646660177 0)
(-0.0538684341621 0.310085814372 0)
(-0.05450632636 0.313487983142 0)
(-0.0551404888881 0.316846361871 0)
(-0.0557706934037 0.32015903822 0)
(-0.0563967244081 0.323424513255 0)
(-0.0570183675259 0.326641458308 0)
(-0.0576360741392 0.329812753006 0)
(-0.0582508121779 0.332944536006 0)
(-0.058861961719 0.33603301968 0)
(-0.0594675971763 0.339060981237 0)
(-0.0600279959736 0.341837432412 0)
(-0.0516916281683 0.325512427724 0)
(-0.0523769076543 0.329486393506 0)
(-0.0530611583593 0.33343468032 0)
(-0.053743213654 0.337346792138 0)
(-0.0544219267567 0.341215203754 0)
(-0.0550970521558 0.345036526936 0)
(-0.0557683371243 0.348808585065 0)
(-0.0564355488076 0.352529703943 0)
(-0.0570984530211 0.356199373622 0)
(-0.0577574379728 0.35982017009 0)
(-0.0584134005566 0.36339703921 0)
(-0.0590656351223 0.366925847686 0)
(-0.0597121175375 0.3703936561 0)
(-0.0603517313918 0.373787432456 0)
(-0.0609433802881 0.376897826936 0)
(-0.0521866104765 0.352993573386 0)
(-0.0529176450861 0.357433793805 0)
(-0.0536456265033 0.361831417254 0)
(-0.0543703600039 0.366180917842 0)
(-0.0550915618137 0.370479817026 0)
(-0.0558089558357 0.374725719375 0)
(-0.0565222867284 0.37891674965 0)
(-0.0572321786339 0.383056833765 0)
(-0.0579390272612 0.387149574906 0)
(-0.0586419409561 0.391190398592 0)
(-0.0593400919103 0.395173309836 0)
(-0.0600322100262 0.399089237169 0)
(-0.0607171641633 0.402930282328 0)
(-0.0613945703461 0.406688047204 0)
(-0.0620209804666 0.410130905497 0)
(-0.0528006975586 0.378994702181 0)
(-0.0535809981775 0.383900813403 0)
(-0.0543572180632 0.388752672865 0)
(-0.0551300196724 0.393550563582 0)
(-0.0558990924584 0.398292088561 0)
(-0.0566641493828 0.402975249064 0)
(-0.0574258005249 0.40760407088 0)
(-0.0581852679038 0.412186526282 0)
(-0.0589415027302 0.416715928077 0)
(-0.0596918007521 0.421175929764 0)
(-0.0604348215464 0.425557756787 0)
(-0.0611702419006 0.42985785235 0)
(-0.061897745516 0.434073637741 0)
(-0.0626168844821 0.438196747216 0)
(-0.0632824776501 0.441978262141 0)
(-0.0535537708865 0.403875238349 0)
(-0.0543884955256 0.409258046531 0)
(-0.0552191055942 0.414581302032 0)
(-0.0560461689307 0.419845366015 0)
(-0.0568693727045 0.425048251999 0)
(-0.0576892782737 0.430193828121 0)
(-0.0585070128838 0.435289739311 0)
(-0.0593213662408 0.440328096809 0)
(-0.060129392312 0.445289424475 0)
(-0.0609295879207 0.450163716339 0)
(-0.061721593662 0.454948368107 0)
(-0.062505075 0.459640950803 0)
(-0.0632797258339 0.46423938971 0)
(-0.0640458458715 0.46874032998 0)
(-0.0647557464662 0.472874063873 0)
(-0.0544696138409 0.427986558174 0)
(-0.0553656898718 0.433869122567 0)
(-0.056257696047 0.439687846871 0)
(-0.0571461100562 0.445443226234 0)
(-0.0580313892544 0.451138549298 0)
(-0.0589144340765 0.456780049124 0)
(-0.0597937915914 0.462358281833 0)
(-0.0606663222086 0.467852201097 0)
(-0.061530416529 0.473250678637 0)
(-0.0623856862025 0.478550942301 0)
(-0.0632317768599 0.483750741905 0)
(-0.0640683630188 0.488848183034 0)
(-0.0648958907795 0.493846206029 0)
(-0.0657149334614 0.498743469185 0)
(-0.0664721903573 0.503231213868 0)
(-0.0555772620668 0.45168499829 0)
(-0.056542688261 0.458098223626 0)
(-0.0575043353132 0.464445866347 0)
(-0.058463140358 0.470731969782 0)
(-0.0594195399444 0.476959095026 0)
(-0.0603717559717 0.483115466073 0)
(-0.0613165254406 0.489179151618 0)
(-0.0622521703519 0.495138576086 0)
(-0.0631782723663 0.500990783843 0)
(-0.0640944811372 0.506733648906 0)
(-0.0650005041845 0.512366187255 0)
(-0.0658965977457 0.517890341732 0)
(-0.0667832245961 0.523308621162 0)
(-0.067658321105 0.528603079596 0)
(-0.0684637677083 0.533431671964 0)
(-0.056908790121 0.475318355792 0)
(-0.0579540026727 0.482310867571 0)
(-0.0589972488949 0.489246069493 0)
(-0.0600367983097 0.496110679846 0)
(-0.0610704376923 0.502889030859 0)
(-0.0620959098137 0.509565339333 0)
(-0.063111526924 0.516128194264 0)
(-0.0641168432152 0.522574682792 0)
(-0.0651114795563 0.528902615985 0)
(-0.0660961235376 0.535116775889 0)
(-0.0670708173941 0.541218402063 0)
(-0.0680334435527 0.547194563085 0)
(-0.0689819287607 0.553031203885 0)
(-0.0699135607008 0.558705730983 0)
(-0.0707684915627 0.563864038836 0)
(-0.0585069259614 0.499269076944 0)
(-0.0596446183787 0.506906240743 0)
(-0.0607787862498 0.51447080089 0)
(-0.0619051402619 0.521932308852 0)
(-0.063021408702 0.529275104097 0)
(-0.0641271183329 0.536495507572 0)
(-0.0652218588174 0.54359115351 0)
(-0.0663052863699 0.550560291984 0)
(-0.0673778147419 0.557405911452 0)
(-0.0684398998493 0.564131101364 0)
(-0.06948879737 0.570718335813 0)
(-0.0705199697052 0.577138861817 0)
(-0.0715312268875 0.583378301815 0)
(-0.0725213632391 0.589424132262 0)
(-0.0734283963188 0.594909312058 0)
(-0.0604227423629 0.523936988073 0)
(-0.0616608122043 0.532250750088 0)
(-0.0628900044578 0.540450786867 0)
(-0.0641084874883 0.548523303491 0)
(-0.0653159123624 0.556466130233 0)
(-0.0665120237424 0.564277954592 0)
(-0.0676966044876 0.571958174636 0)
(-0.0688694569334 0.57950582687 0)
(-0.0700296882571 0.586914693039 0)
(-0.0711737765875 0.594161659794 0)
(-0.0722970273186 0.601216236219 0)
(-0.0733972462666 0.608064340174 0)
(-0.0744740500583 0.614703720295 0)
(-0.0755262624454 0.621123425926 0)
(-0.0764885585095 0.626937156752 0)
(-0.0626942239579 0.549597702541 0)
(-0.0640376375112 0.558601151028 0)
(-0.0653698415696 0.567470786139 0)
(-0.0666911456288 0.576208166306 0)
(-0.0680014783118 0.584813309355 0)
(-0.069301479413 0.593290220882 0)
(-0.0705898473196 0.601630553411 0)
(-0.0718616829531 0.609802428488 0)
(-0.0731124933082 0.617776069167 0)
(-0.0743388280309 0.625528332214 0)
(-0.0755387389948 0.633046243102 0)
(-0.0767121066472 0.640329843461 0)
(-0.0778588058596 0.647379185186 0)
(-0.078978346778 0.654187585046 0)
(-0.0800008315521 0.660342126121 0)
(-0.0653557819534 0.57646343498 0)
(-0.0668140985758 0.586208894654 0)
(-0.0682619804812 0.595823048221 0)
(-0.0697021650587 0.605322792721 0)
(-0.0711318727834 0.614689753722 0)
(-0.0725475710194 0.623900144061 0)
(-0.0739439998845 0.632918597241 0)
(-0.0753156441435 0.641708316284 0)
(-0.0766594359965 0.650248937238 0)
(-0.0779723977557 0.658520931536 0)
(-0.0792556389587 0.666530437075 0)
(-0.0805111989783 0.674290315049 0)
(-0.0817364354314 0.681785046533 0)
(-0.0829268735892 0.68898396019 0)
(-0.0840058329372 0.695435253275 0)
(-0.0684299269618 0.604582581521 0)
(-0.070015275487 0.615150861482 0)
(-0.0715906446497 0.62558974282 0)
(-0.0731571434222 0.635903771503 0)
(-0.0747103925786 0.646062210486 0)
(-0.0762430096174 0.656014837831 0)
(-0.0777485655337 0.665717291384 0)
(-0.0792249920029 0.675154123526 0)
(-0.0806692920111 0.684305104245 0)
(-0.0820781673768 0.693148515857 0)
(-0.0834530047903 0.701691809607 0)
(-0.0847938991688 0.70993420531 0)
(-0.0860961710934 0.717846427613 0)
(-0.0873510144892 0.725371721528 0)
(-0.0884765038667 0.732032213541 0)
(-0.071190575967 0.628038512074 0)
(-0.0728835627821 0.639318331167 0)
(-0.0745657415133 0.650462733427 0)
(-0.0762349213145 0.661453248959 0)
(-0.0778866091748 0.672256583476 0)
(-0.0795135175548 0.682820852477 0)
(-0.0811118023926 0.693117798227 0)
(-0.0826789364846 0.703127186471 0)
(-0.0842100946957 0.712813859097 0)
(-0.0857033296661 0.72216333349 0)
(-0.0871569855737 0.731162920427 0)
(-0.0885672163993 0.739786460617 0)
(-0.0899283701143 0.747998145506 0)
(-0.0912304801379 0.755734372821 0)
(-0.092391655802 0.762525228949 0)
(-0.0502571988905 0 0)
(-0.0507711899232 0 0)
(-0.0512813919669 0 0)
(-0.0517890623325 0 0)
(-0.0522940712741 0 0)
(-0.0527962828194 0 0)
(-0.053295556455 0 0)
(-0.0537917503492 0 0)
(-0.0542847215476 0 0)
(-0.0547754236205 0 0)
(-0.0552646651218 0 0)
(-0.0557509289065 0 0)
(-0.056232848438 0 0)
(-0.0567103764633 0 0)
(-0.0571527010998 0 0)
(-0.0502757620501 0.0548331567664 0)
(-0.0507926297757 0.0554428214633 0)
(-0.0513057544509 0.0560452357305 0)
(-0.0518163870803 0.0566404268751 0)
(-0.0523243880726 0.0572280804654 0)
(-0.0528296152844 0.0578079879567 0)
(-0.0533319234222 0.0583799363011 0)
(-0.0538311661558 0.0589437315738 0)
(-0.0543277545778 0.05950149442 0)
(-0.0548225826616 0.0600571645158 0)
(-0.0553152957075 0.0606080970149 0)
(-0.0558044430262 0.061149631601 0)
(-0.0562892692906 0.0616809414443 0)
(-0.0567697181743 0.0621997878832 0)
(-0.0572147789445 0.0626749632642 0)
(-0.0503307698324 0.105568162669 0)
(-0.0508562323716 0.106741776366 0)
(-0.0513780408018 0.107901806097 0)
(-0.0518974291565 0.109048747871 0)
(-0.0524142442022 0.110182091705 0)
(-0.0529283338768 0.11130138477 0)
(-0.0534395446347 0.112406202417 0)
(-0.0539482933346 0.113498811734 0)
(-0.0544554813619 0.114583599469 0)
(-0.05496073461 0.115659306089 0)
(-0.0554625783068 0.11672007773 0)
(-0.0559602428384 0.11776275712 0)
(-0.0564535766985 0.118786175248 0)
(-0.0569425020702 0.119786676357 0)
(-0.0573954514347 0.120703814505 0)
(-0.0504233957542 0.151284551507 0)
(-0.0509628594744 0.152972739045 0)
(-0.0514987702112 0.154642064782 0)
(-0.0520323346721 0.156293585458 0)
(-0.0525633901026 0.157926636523 0)
(-0.0530917760454 0.159540568711 0)
(-0.0536179179417 0.161137782208 0)
(-0.0541427286989 0.162723054836 0)
(-0.0546657965861 0.164294677102 0)
(-0.0551855856191 0.165845683 0)
(-0.0557012970781 0.167372287435 0)
(-0.0562127687863 0.168873209813 0)
(-0.0567198399659 0.170347161401 0)
(-0.0572224115518 0.171789664226 0)
(-0.0576886310771 0.173115992654 0)
(-0.0505582238811 0.192620267572 0)
(-0.051116769161 0.19478906835 0)
(-0.0516718618515 0.196934417804 0)
(-0.052224675582 0.199057731177 0)
(-0.0527750393313 0.2011582221 0)
(-0.053323390598 0.203238479481 0)
(-0.0538706625318 0.20530373648 0)
(-0.0544164016363 0.207351722239 0)
(-0.0549589930631 0.209374184188 0)
(-0.0554975998856 0.211366711543 0)
(-0.0560320485143 0.213327833851 0)
(-0.0565621690672 0.215256201269 0)
(-0.0570877942346 0.21715066775 0)
(-0.0576094079397 0.219009341876 0)
(-0.0580943470683 0.22072404125 0)
(-0.050742670234 0.230191939313 0)
(-0.0513250629172 0.232819661665 0)
(-0.0519041275946 0.235419858674 0)
(-0.0524809909672 0.237994180797 0)
(-0.0530560910404 0.240545407303 0)
(-0.0536303700912 0.243079225082 0)
(-0.0542033308355 0.245592899814 0)
(-0.0547732770838 0.248076735406 0)
(-0.0553393228951 0.250525519407 0)
(-0.0559012751061 0.252937704272 0)
(-0.0564589494811 0.255311819241 0)
(-0.0570121695682 0.25764672935 0)
(-0.0575613849544 0.259944876394 0)
(-0.0581075733945 0.262206847304 0)
(-0.0586150666562 0.264291855593 0)
(-0.0509859293986 0.264546485274 0)
(-0.051596850961 0.267619490342 0)
(-0.0522046384394 0.270662508861 0)
(-0.0528109540872 0.27368102978 0)
(-0.0534167134305 0.276679862302 0)
(-0.0540213587241 0.279655887854 0)
(-0.0546230987248 0.282598185568 0)
(-0.0552210042109 0.285500680752 0)
(-0.0558148728795 0.288361706194 0)
(-0.0564045055989 0.291179808887 0)
(-0.0569897091656 0.293953766364 0)
(-0.0575709451626 0.296686403811 0)
(-0.0581491824125 0.299383385282 0)
(-0.0587238730016 0.30203635326 0)
(-0.0592563922487 0.304473326569 0)
(-0.0512974643346 0.296169388603 0)
(-0.0519422615177 0.299685978362 0)
(-0.0525855401474 0.303178450958 0)
(-0.0532278088717 0.306646660177 0)
(-0.0538684341621 0.310085814372 0)
(-0.05450632636 0.313487983142 0)
(-0.0551404888881 0.316846361871 0)
(-0.0557706934037 0.32015903822 0)
(-0.0563967244081 0.323424513255 0)
(-0.0570183675259 0.326641458308 0)
(-0.0576360741392 0.329812753006 0)
(-0.0582508121779 0.332944536006 0)
(-0.058861961719 0.33603301968 0)
(-0.0594675971763 0.339060981237 0)
(-0.0600279959736 0.341837432412 0)
(-0.0516916281683 0.325512427724 0)
(-0.0523769076543 0.329486393506 0)
(-0.0530611583593 0.33343468032 0)
(-0.053743213654 0.337346792138 0)
(-0.0544219267567 0.341215203754 0)
(-0.0550970521558 0.345036526936 0)
(-0.0557683371243 0.348808585065 0)
(-0.0564355488076 0.352529703943 0)
(-0.0570984530211 0.356199373622 0)
(-0.0577574379728 0.35982017009 0)
(-0.0584134005566 0.36339703921 0)
(-0.0590656351223 0.366925847686 0)
(-0.0597121175375 0.3703936561 0)
(-0.0603517313918 0.373787432456 0)
(-0.0609433802881 0.376897826936 0)
(-0.0521866104765 0.352993573386 0)
(-0.0529176450861 0.357433793805 0)
(-0.0536456265033 0.361831417254 0)
(-0.0543703600039 0.366180917842 0)
(-0.0550915618137 0.370479817026 0)
(-0.0558089558357 0.374725719375 0)
(-0.0565222867284 0.37891674965 0)
(-0.0572321786339 0.383056833765 0)
(-0.0579390272612 0.387149574906 0)
(-0.0586419409561 0.391190398592 0)
(-0.0593400919103 0.395173309836 0)
(-0.0600322100262 0.399089237169 0)
(-0.0607171641633 0.402930282328 0)
(-0.0613945703461 0.406688047204 0)
(-0.0620209804666 0.410130905497 0)
(-0.0528006975586 0.378994702181 0)
(-0.0535809981775 0.383900813403 0)
(-0.0543572180632 0.388752672865 0)
(-0.0551300196724 0.393550563582 0)
(-0.0558990924584 0.398292088561 0)
(-0.0566641493828 0.402975249064 0)
(-0.0574258005249 0.40760407088 0)
(-0.0581852679038 0.412186526282 0)
(-0.0589415027302 0.416715928077 0)
(-0.0596918007521 0.421175929764 0)
(-0.0604348215464 0.425557756787 0)
(-0.0611702419006 0.42985785235 0)
(-0.061897745516 0.434073637741 0)
(-0.0626168844821 0.438196747216 0)
(-0.0632824776501 0.441978262141 0)
(-0.0535537708865 0.403875238349 0)
(-0.0543884955256 0.409258046531 0)
(-0.0552191055942 0.414581302032 0)
(-0.0560461689307 0.419845366015 0)
(-0.0568693727045 0.425048251999 0)
(-0.0576892782737 0.430193828121 0)
(-0.0585070128838 0.435289739311 0)
(-0.0593213662408 0.440328096809 0)
(-0.060129392312 0.445289424475 0)
(-0.0609295879207 0.450163716339 0)
(-0.061721593662 0.454948368107 0)
(-0.062505075 0.459640950803 0)
(-0.0632797258339 0.46423938971 0)
(-0.0640458458715 0.46874032998 0)
(-0.0647557464662 0.472874063873 0)
(-0.0544696138409 0.427986558174 0)
(-0.0553656898718 0.433869122567 0)
(-0.056257696047 0.439687846871 0)
(-0.0571461100562 0.445443226234 0)
(-0.0580313892544 0.451138549298 0)
(-0.0589144340765 0.456780049124 0)
(-0.0597937915914 0.462358281833 0)
(-0.0606663222086 0.467852201097 0)
(-0.061530416529 0.473250678637 0)
(-0.0623856862025 0.478550942301 0)
(-0.0632317768599 0.483750741905 0)
(-0.0640683630188 0.488848183034 0)
(-0.0648958907795 0.493846206029 0)
(-0.0657149334614 0.498743469185 0)
(-0.0664721903573 0.503231213868 0)
(-0.0555772620668 0.45168499829 0)
(-0.056542688261 0.458098223626 0)
(-0.0575043353132 0.464445866347 0)
(-0.058463140358 0.470731969782 0)
(-0.0594195399444 0.476959095026 0)
(-0.0603717559717 0.483115466073 0)
(-0.0613165254406 0.489179151618 0)
(-0.0622521703519 0.495138576086 0)
(-0.0631782723663 0.500990783843 0)
(-0.0640944811372 0.506733648906 0)
(-0.0650005041845 0.512366187255 0)
(-0.0658965977457 0.517890341732 0)
(-0.0667832245961 0.523308621162 0)
(-0.067658321105 0.528603079596 0)
(-0.0684637677083 0.533431671964 0)
(-0.056908790121 0.475318355792 0)
(-0.0579540026727 0.482310867571 0)
(-0.0589972488949 0.489246069493 0)
(-0.0600367983097 0.496110679846 0)
(-0.0610704376923 0.502889030859 0)
(-0.0620959098137 0.509565339333 0)
(-0.063111526924 0.516128194264 0)
(-0.0641168432152 0.522574682792 0)
(-0.0651114795563 0.528902615985 0)
(-0.0660961235376 0.535116775889 0)
(-0.0670708173941 0.541218402063 0)
(-0.0680334435527 0.547194563085 0)
(-0.0689819287607 0.553031203885 0)
(-0.0699135607008 0.558705730983 0)
(-0.0707684915627 0.563864038836 0)
(-0.0585069259614 0.499269076944 0)
(-0.0596446183787 0.506906240743 0)
(-0.0607787862498 0.51447080089 0)
(-0.0619051402619 0.521932308852 0)
(-0.063021408702 0.529275104097 0)
(-0.0641271183329 0.536495507572 0)
(-0.0652218588174 0.54359115351 0)
(-0.0663052863699 0.550560291984 0)
(-0.0673778147419 0.557405911452 0)
(-0.0684398998493 0.564131101364 0)
(-0.06948879737 0.570718335813 0)
(-0.0705199697052 0.577138861817 0)
(-0.0715312268875 0.583378301815 0)
(-0.0725213632391 0.589424132262 0)
(-0.0734283963188 0.594909312058 0)
(-0.0604227423629 0.523936988073 0)
(-0.0616608122043 0.532250750088 0)
(-0.0628900044578 0.540450786867 0)
(-0.0641084874883 0.548523303491 0)
(-0.0653159123624 0.556466130233 0)
(-0.0665120237424 0.564277954592 0)
(-0.0676966044876 0.571958174636 0)
(-0.0688694569334 0.57950582687 0)
(-0.0700296882571 0.586914693039 0)
(-0.0711737765875 0.594161659794 0)
(-0.0722970273186 0.601216236219 0)
(-0.0733972462666 0.608064340174 0)
(-0.0744740500583 0.614703720295 0)
(-0.0755262624454 0.621123425926 0)
(-0.0764885585095 0.626937156752 0)
(-0.0626942239579 0.549597702541 0)
(-0.0640376375112 0.558601151028 0)
(-0.0653698415696 0.567470786139 0)
(-0.0666911456288 0.576208166306 0)
(-0.0680014783118 0.584813309355 0)
(-0.069301479413 0.593290220882 0)
(-0.0705898473196 0.601630553411 0)
(-0.0718616829531 0.609802428488 0)
(-0.0731124933082 0.617776069167 0)
(-0.0743388280309 0.625528332214 0)
(-0.0755387389948 0.633046243102 0)
(-0.0767121066472 0.640329843461 0)
(-0.0778588058596 0.647379185186 0)
(-0.078978346778 0.654187585046 0)
(-0.0800008315521 0.660342126121 0)
(-0.0653557819534 0.57646343498 0)
(-0.0668140985758 0.586208894654 0)
(-0.0682619804812 0.595823048221 0)
(-0.0697021650587 0.605322792721 0)
(-0.0711318727834 0.614689753722 0)
(-0.0725475710194 0.623900144061 0)
(-0.0739439998845 0.632918597241 0)
(-0.0753156441435 0.641708316284 0)
(-0.0766594359965 0.650248937238 0)
(-0.0779723977557 0.658520931536 0)
(-0.0792556389587 0.666530437075 0)
(-0.0805111989783 0.674290315049 0)
(-0.0817364354314 0.681785046533 0)
(-0.0829268735892 0.68898396019 0)
(-0.0840058329372 0.695435253275 0)
(-0.0684299269618 0.604582581521 0)
(-0.070015275487 0.615150861482 0)
(-0.0715906446497 0.62558974282 0)
(-0.0731571434222 0.635903771503 0)
(-0.0747103925786 0.646062210486 0)
(-0.0762430096174 0.656014837831 0)
(-0.0777485655337 0.665717291384 0)
(-0.0792249920029 0.675154123526 0)
(-0.0806692920111 0.684305104245 0)
(-0.0820781673768 0.693148515857 0)
(-0.0834530047903 0.701691809607 0)
(-0.0847938991688 0.70993420531 0)
(-0.0860961710934 0.717846427613 0)
(-0.0873510144892 0.725371721528 0)
(-0.0884765038667 0.732032213541 0)
(-0.071190575967 0.628038512074 0)
(-0.0728835627821 0.639318331167 0)
(-0.0745657415133 0.650462733427 0)
(-0.0762349213145 0.661453248959 0)
(-0.0778866091748 0.672256583476 0)
(-0.0795135175548 0.682820852477 0)
(-0.0811118023926 0.693117798227 0)
(-0.0826789364846 0.703127186471 0)
(-0.0842100946957 0.712813859097 0)
(-0.0857033296661 0.72216333349 0)
(-0.0871569855737 0.731162920427 0)
(-0.0885672163993 0.739786460617 0)
(-0.0899283701143 0.747998145506 0)
(-0.0912304801379 0.755734372821 0)
(-0.092391655802 0.762525228949 0)
(-0.0575315310067 0 0)
(-0.0578825888293 0 0)
(-0.0582386475072 0 0)
(-0.0586006067163 0 0)
(-0.0589692786593 0 0)
(-0.0593436778 0 0)
(-0.0597228121832 0 0)
(-0.0601066125515 0 0)
(-0.0604950019633 0 0)
(-0.0608878853809 0 0)
(-0.0612851436236 0 0)
(-0.0616876115693 0 0)
(-0.0620960525193 0 0)
(-0.0625091115291 0 0)
(-0.0629254354011 0 0)
(-0.0633447443157 0 0)
(-0.0637667326488 0 0)
(-0.0641910539444 0 0)
(-0.0646183731206 0 0)
(-0.0650492833055 0 0)
(-0.0654831155256 0 0)
(-0.0659191581939 0 0)
(-0.0663556369851 0 0)
(-0.0667907289579 0 0)
(-0.0672237138356 0 0)
(-0.0676538112285 0 0)
(-0.0680801692517 0 0)
(-0.0685018647237 0 0)
(-0.0689179006474 0 0)
(-0.0693272013802 0 0)
(-0.069728607538 0 0)
(-0.0701208706175 0 0)
(-0.0705026472994 0 0)
(-0.0708724933943 0 0)
(-0.071228857394 0 0)
(-0.0715700735884 0 0)
(-0.0718943547103 0 0)
(-0.0722003760322 0 0)
(-0.0724867197837 0 0)
(-0.0727506183762 0 0)
(-0.0729890965887 0 0)
(-0.0731996192113 0 0)
(-0.0733794725997 0 0)
(-0.0735257475889 0 0)
(-0.0736353252585 0 0)
(-0.0737048609283 0 0)
(-0.0737307767033 0 0)
(-0.0737092246332 0 0)
(-0.0736360534352 0 0)
(-0.0735068254053 0 0)
(-0.0733167834279 0 0)
(-0.0730608026763 0 0)
(-0.0727333726391 0 0)
(-0.072328565714 0 0)
(-0.0718400034012 0 0)
(-0.0712608200427 0 0)
(-0.0705836240976 0 0)
(-0.0698004569984 0 0)
(-0.0689027497091 0 0)
(-0.0678812771979 0 0)
(-0.066726111162 0 0)
(-0.0654265714977 0 0)
(-0.0639711772179 0 0)
(-0.0623475977804 0 0)
(-0.060542606136 0 0)
(-0.058542035253 0 0)
(-0.0563307404488 0 0)
(-0.0538925706152 0 0)
(-0.0512103524069 0 0)
(-0.0482658927521 0 0)
(-0.0450400067577 0 0)
(-0.0415125803968 0 0)
(-0.0376626805835 0 0)
(-0.0334687299013 0 0)
(-0.0289087703496 0 0)
(-0.023960852051 0 0)
(-0.0186036029851 0 0)
(-0.0128170766212 0 0)
(-0.00658458676668 0 0)
(0 0 0)
(-0.0575960012677 0.0630813270777 0)
(-0.0579493042384 0.0634559857122 0)
(-0.0583080686073 0.0638335043032 0)
(-0.0586731733441 0.0642172874318 0)
(-0.0590445530626 0.0646056493819 0)
(-0.0594212391958 0.064995278311 0)
(-0.0598027090497 0.0653855378852 0)
(-0.0601888926373 0.0657754862652 0)
(-0.060579706818 0.0661641510862 0)
(-0.0609750508647 0.066550797497 0)
(-0.0613752986215 0.0669370101535 0)
(-0.0617812741162 0.0673264687612 0)
(-0.0621926994886 0.0677158854175 0)
(-0.062608234038 0.0680999174743 0)
(-0.0630270767164 0.0684778902973 0)
(-0.0634489487326 0.0688484880133 0)
(-0.0638735421492 0.069210061834 0)
(-0.0643005132765 0.069561339276 0)
(-0.0647304965376 0.0699043494105 0)
(-0.0651640138606 0.070237842975 0)
(-0.0656003868432 0.0705605664731 0)
(-0.0660388911498 0.0708711719321 0)
(-0.0664777228915 0.071163817322 0)
(-0.0669150678185 0.0714350554025 0)
(-0.0673501997254 0.0716819865025 0)
(-0.0677823322552 0.0719020245779 0)
(-0.0682106080353 0.0720927201812 0)
(-0.0686340976867 0.072251644115 0)
(-0.0690517973526 0.0723763592955 0)
(-0.0694626240437 0.0724643907697 0)
(-0.0698654107768 0.0725132268568 0)
(-0.0702589013991 0.0725203248165 0)
(-0.0706417450578 0.0724831195706 0)
(-0.0710124902902 0.0723990366016 0)
(-0.0713695786883 0.0722655066512 0)
(-0.0717113380888 0.0720799810121 0)
(-0.0720359752386 0.0718399463909 0)
(-0.0723421693495 0.0715424270274 0)
(-0.0726285098067 0.0711849949346 0)
(-0.0728922185221 0.0707664096549 0)
(-0.0731303099511 0.0702852101835 0)
(-0.0733402499986 0.0697395955136 0)
(-0.0735193266293 0.0691278650334 0)
(-0.0736646331414 0.0684484823875 0)
(-0.0737730541375 0.0677001258685 0)
(-0.0738412496012 0.0668817118764 0)
(-0.0738656425149 0.0659924092467 0)
(-0.0738423902771 0.0650316485274 0)
(-0.0737673572274 0.0639991295267 0)
(-0.0736361128788 0.0628948237004 0)
(-0.0734439031068 0.0617189707562 0)
(-0.0731856116867 0.0604720722118 0)
(-0.0728557366601 0.0591548798778 0)
(-0.0724483588047 0.0577683783322 0)
(-0.0719571076653 0.056313762098 0)
(-0.0713751251098 0.0547924072148 0)
(-0.0706950264054 0.0532058371962 0)
(-0.0699088588693 0.051555683442 0)
(-0.0690080582141 0.0498436402493 0)
(-0.0679834028047 0.0480714146294 0)
(-0.0668249661604 0.0462406711852 0)
(-0.0655220681962 0.0443529723562 0)
(-0.0640632258982 0.0424097143668 0)
(-0.062436104392 0.0404120592555 0)
(-0.0606274697078 0.0383608633986 0)
(-0.0586231449853 0.0362566030055 0)
(-0.0564079724426 0.0340992971433 0)
(-0.053965784176 0.0318884289849 0)
(-0.0512793858424 0.0296228661804 0)
(-0.0483305585469 0.0273007815317 0)
(-0.0451000859505 0.0249195755664 0)
(-0.0415678158748 0.0224758031705 0)
(-0.0377127687939 0.0199651072662 0)
(-0.0335133100544 0.0173821638437 0)
(-0.0289474093608 0.0147206450772 0)
(-0.0239930218141 0.0119732122469 0)
(-0.0186286429705 0.00913156050711 0)
(-0.0128341249911 0.0061865604134 0)
(-0.00659245273339 0.00312898093264 0)
(0 0 0)
(-0.0577839254807 0.121490126387 0)
(-0.058144903171 0.122218365897 0)
(-0.0585118529379 0.122953199342 0)
(-0.0588847578613 0.123696066133 0)
(-0.059263134054 0.124443972014 0)
(-0.0596464823939 0.125194306177 0)
(-0.0600347434874 0.125945832072 0)
(-0.0604278422813 0.126697185672 0)
(-0.0608256851017 0.127446986204 0)
(-0.0612286663678 0.128196365979 0)
(-0.0616376375811 0.128948688241 0)
(-0.0620523331786 0.129702032508 0)
(-0.0624714232956 0.130449760072 0)
(-0.0628941267242 0.131188031556 0)
(-0.0633201818797 0.13191490739 0)
(-0.0637492940164 0.132627668541 0)
(-0.0641811348588 0.133323569252 0)
(-0.0646158533577 0.134003152777 0)
(-0.0650540107183 0.134669929452 0)
(-0.0654955086781 0.135318771901 0)
(-0.0659397108874 0.135947330341 0)
(-0.0663853559958 0.136551381674 0)
(-0.0668305787668 0.13711984659 0)
(-0.0672741096878 0.13764771415 0)
(-0.0677151868846 0.138129936526 0)
(-0.0681529901017 0.138561880492 0)
(-0.0685866330892 0.138939107163 0)
(-0.0690151593073 0.139257121942 0)
(-0.0694375385837 0.139511358025 0)
(-0.0698526624072 0.139697154846 0)
(-0.0702593391746 0.139809767075 0)
(-0.0706562891644 0.139844379538 0)
(-0.0710421391861 0.139796126938 0)
(-0.0714154168689 0.139660119073 0)
(-0.0717745445219 0.139431469206 0)
(-0.0721178324999 0.139105324508 0)
(-0.0724434720034 0.138676897778 0)
(-0.0727501481012 0.138140543516 0)
(-0.0730364629522 0.137491311559 0)
(-0.0732996151073 0.136726426368 0)
(-0.0735365966859 0.135842972873 0)
(-0.0737448758115 0.13483737967 0)
(-0.0739217446164 0.133706243062 0)
(-0.0740643030468 0.132446434809 0)
(-0.0741694452075 0.131055194803 0)
(-0.0742338434325 0.129530175627 0)
(-0.0742539307495 0.127869472324 0)
(-0.0742258808985 0.126071643315 0)
(-0.0741455867837 0.124135725864 0)
(-0.0740086386715 0.122061243833 0)
(-0.073810299183 0.119848206816 0)
(-0.0735454750933 0.117497101584 0)
(-0.0732086876607 0.11500887428 0)
(-0.0727940405845 0.112384902412 0)
(-0.0722951854988 0.109626956643 0)
(-0.0717052849675 0.106737151955 0)
(-0.0710169729851 0.103717887987 0)
(-0.0702223130399 0.100571778492 0)
(-0.0693127538601 0.0973015699887 0)
(-0.0682790830606 0.0939100497737 0)
(-0.067111379018 0.0903999436162 0)
(-0.0657989614599 0.0867738035104 0)
(-0.0643303414502 0.0830338859845 0)
(-0.0626931717156 0.079182021543 0)
(-0.0608741985916 0.075219475944 0)
(-0.0588592173089 0.0711468041576 0)