/*--------------------------------*- C++ -*----------------------------------*\
  =========                 |
  \\      /  F ield         | OpenFOAM: The Open Source CFD Toolbox
   \\    /   O peration     | Website:  https://openfoam.org
    \\  /    A nd           | Version:  7
     \\/     M anipulation  |
\*---------------------------------------------------------------------------*/
FoamFile
{
    version     2.0;
    format      ascii;
    class       volVectorField;
    location    "1";
    object      U;
}
// * * * * * * * * * * * * * * * * * * * * * * * * * * * * * * * * * * * * * //

dimensions      [0 1 -1 0 0 0 0];

internalField   nonuniform List<vector> 
7540
(
(54.823274335 0.267458626157 2.59247751655e-18)
(54.7214504579 0.273981927971 1.1884101543e-21)
(54.6179138328 0.280378919688 -1.33236023742e-18)
(54.512676157 0.286649714079 1.05542759975e-20)
(54.4057559771 0.292799175373 2.63789527309e-18)
(54.2971940392 0.298831963012 1.94968685465e-21)
(54.1870344753 0.304751179215 -7.00560381149e-18)
(54.0753164179 0.310559580429 -2.77711260436e-21)
(53.9620728872 0.316263338033 4.52005355415e-18)
(53.8473352608 0.321866628401 -1.4889286169e-18)
(53.7311330675 0.327367296389 2.90489394213e-18)
(53.613490021 0.332765780775 3.06962124513e-18)
(53.4944429134 0.338063830402 -3.09291671767e-18)
(53.3739279546 0.343246636506 -1.56542813736e-18)
(54.9236141514 0.966618584596 -1.37574334978e-18)
(54.8205195653 0.984042932685 6.37935432903e-18)
(54.715714856 1.00119518229 -5.26380746411e-18)
(54.6092722517 1.01807387921 -1.29081240784e-18)
(54.5012380515 1.03468155664 5.43313728877e-18)
(54.3916302407 1.05102068152 -4.13884603932e-18)
(54.2804642287 1.06709457035 1.69007472165e-20)
(54.1677679411 1.08291161069 2.78967796276e-18)
(54.0535776415 1.09848293632 6.56927445908e-21)
(53.9379243387 1.11380722558 -1.47709029686e-18)
(53.8208327872 1.1288754165 -1.50996005393e-18)
(53.7023257762 1.14368510829 -8.97359916939e-18)
(53.5824354087 1.1582381054 1.54786368095e-18)
(53.4610916888 1.17245953075 6.59475264149e-18)
(55.0817225401 1.53025860413 2.54624925432e-18)
(54.9767860594 1.55953136551 -5.13823988835e-18)
(54.8701530617 1.58834127981 4.09094641813e-18)
(54.761869072 1.61669101231 1.22200495188e-18)
(54.6519739257 1.64457995305 2.34087719565e-21)
(54.5405083593 1.67201044634 -5.54235454584e-18)
(54.4275163037 1.6989924984 -5.69190360012e-18)
(54.313036584 1.72553937531 1.38478123752e-18)
(54.1970994393 1.75165470499 -3.0825993953e-18)
(54.0797306889 1.77733508408 -1.52079013459e-18)
(53.9609593141 1.80258144884 3.09418986773e-18)
(53.8408107403 1.8273991441 7.6394788083e-18)
(53.7193304451 1.85178843753 1.50656641862e-18)
(53.5964122586 1.87567861893 -4.6513607478e-18)
(55.3299300689 2.21143689308 1.39664393677e-18)
(55.2213051503 2.25115446978 2.72888686636e-18)
(55.1110882414 2.29016372486 -7.75612191622e-22)
(54.9993128634 2.32847580378 -4.66793719882e-20)
(54.8860215748 2.36610173716 2.82417142162e-18)
(54.7712627998 2.40305999399 -4.12450217639e-18)
(54.6550827587 2.43937199816 -4.29372964393e-18)
(54.5375168014 2.47504678607 2.93880721709e-18)
(54.4185927245 2.51008399554 2.80531324529e-18)
(54.2983401229 2.54448882364 -1.6401666798e-18)
(54.176791837 2.5782721851 5.91807145256e-20)
(54.0539752452 2.6114456762 1.53339078764e-18)
(53.9299353071 2.644023165 4.50962528065e-20)
(53.8045444544 2.67587441487 -3.17490960481e-18)
(55.630093681 2.83453246244 -7.65870774594e-20)
(55.5169086587 2.88440746059 4.15409281854e-18)
(55.4022229639 2.93333224714 -1.30572477579e-18)
(55.2860944028 2.98132540736 -1.30153467825e-18)
(55.1685768292 3.0284118847 -1.42674683812e-18)
(55.0497251547 3.0746202457 4.75760924145e-20)
(54.9295827629 3.11996745476 -1.65958463641e-18)
(54.8081831964 3.16446069097 1.52156188726e-18)
(54.6855616113 3.20811307847 6.17067162347e-18)
(54.5617552463 3.25094487077 3.90693450042e-20)
(54.4368013659 3.29297820951 -7.29949537499e-20)
(54.3107278269 3.33423865735 -1.61425411864e-18)
(54.1835964 3.37475223219 -4.87378296856e-18)
(54.0552366649 3.41440375356 6.46727821755e-18)
(56.0028793992 3.54427666196 -2.78823675435e-18)
(55.8830513031 3.60299075903 -7.36798883074e-18)
(55.7619102084 3.66041302869 -1.60226652152e-18)
(55.6395342146 3.71658406666 1.09445777039e-17)
(55.5159948094 3.77154740409 4.65719575132e-18)
(55.3913467693 3.82533403339 1.2566049744e-18)
(55.2656308898 3.87796290764 1.35697600461e-18)
(55.1388915033 3.92945986041 -1.61812063414e-18)
(55.0111762414 3.97986038247 -3.17488467596e-18)
(54.8825286913 4.0292035698 7.86990726034e-20)
(54.75299174 4.07753224487 1.71154041016e-18)
(54.6226018106 4.12489795922 -8.27832870746e-18)
(54.4914279198 4.17135316757 3.36645309848e-18)
(54.3592538698 4.21671388739 4.37374019047e-18)
(56.4139753068 4.2591567883 4.84132447605e-18)
(56.2857834551 4.32525312726 1.27936666045e-17)
(56.1565793562 4.38968714458 -3.40344386836e-18)
(56.026452761 4.45251590564 -5.01026167034e-18)
(55.8954767323 4.51378932685 8.35264271111e-18)
(55.7637106267 4.57354894168 8.34620936254e-18)
(55.6312115365 4.63184098541 -1.0073015872e-17)
(55.4980400605 4.6887233401 -8.49547119139e-18)
(55.3642529741 4.74425857792 3.58688996215e-18)
(55.2299011072 4.79851344877 -1.90855924621e-19)
(55.0950387195 4.8515642718 6.92581699091e-18)
(54.959706142 4.90349085828 3.5351982547e-18)
(54.8239679507 4.95434770055 -5.47152849614e-18)
(54.6875618759 5.00395139138 -5.50550476503e-19)
(56.8680171935 5.05300308822 -2.02575630635e-18)
(56.7287490753 5.12433530602 -1.81681188214e-18)
(56.5889358109 5.19348839667 1.30049915436e-19)
(56.4486722821 5.2605325668 -7.92078409437e-20)
(56.3080457598 5.32554187253 1.82297148766e-18)
(56.1671400132 5.3885974611 1.58041912209e-19)
(56.0260349168 5.44978995956 1.94266699473e-18)
(55.8848048707 5.50921704264 -1.48996613964e-19)
(55.7435176532 5.56698145712 7.64573151442e-18)
(55.6022374587 5.62319529067 -4.43644708712e-20)
(55.461025779 5.67797462101 -7.30520428661e-18)
(55.3199107979 5.73141613289 7.39852248707e-18)
(55.1789463221 5.7835940188 -1.89332446427e-18)
(55.0378521517 5.83430563443 -7.31625170903e-18)
(57.3328365874 5.90753636982 -2.04673501044e-18)
(57.1795750443 5.98042641551 -1.89150913511e-19)
(57.0264231372 6.05048995437 0)
(56.8735074381 6.1178478191 1.87626292864e-18)
(56.7209480642 6.18263404486 -2.07398105668e-18)
(56.5688548272 6.24499055497 -2.03083195566e-18)
(56.4173288715 6.30506864113 4.0170213698e-18)
(56.2664648613 6.36302914366 -1.01159194763e-17)
(56.1163433503 6.41903294737 -1.92329565449e-18)
(55.9670280591 6.47323671409 6.31772977954e-18)
(55.8185702723 6.52578816708 3.89052775239e-18)
(55.6709897703 6.57682006221 5.97358130742e-18)
(55.5243432427 6.62645857443 -5.96788144345e-18)
(55.3783571266 6.67453895591 -1.34879548208e-18)
(57.7869514712 6.85115405208 6.10413885117e-20)
(57.6157507824 6.92148361923 5.11453681182e-20)
(57.445716754 6.98815039823 6.87356415724e-18)
(57.2770210529 7.05135946895 -1.62336224819e-19)
(57.109812426 7.11132213288 -9.34250940128e-18)
(56.9442223658 7.16826022476 -4.47657413833e-20)
(56.7803746731 7.22241469352 4.65167816895e-18)
(56.6183759894 7.27402590382 -4.97054681084e-20)
(56.4582967773 7.32330636276 -4.80083964102e-18)
(56.3001829929 7.37045960697 6.69057445666e-18)
(56.1440756561 7.4156961824 8.81258785346e-18)
(55.9899948841 7.45922945092 -2.0999855446e-18)
(55.8379843296 7.50126629281 -8.82623690046e-18)
(55.6877991616 7.54167348903 -9.63562928019e-18)
(58.1953195646 7.92009520078 -7.78891298711e-18)
(58.0018813993 7.97901571498 5.47649075729e-18)
(57.8110998809 8.03332304752 1.07711429535e-17)
(57.6231828675 8.08335049146 3.05764186187e-18)
(57.4383069556 8.12943667854 -7.95352908385e-18)
(57.2566317989 8.17193818669 -2.93706866082e-18)
(57.0782953158 8.21121131264 5.20565594091e-18)
(56.9033951202 8.247571303 -5.27170279455e-18)
(56.731994901 8.28130718855 -2.20015587203e-19)
(56.5641426172 8.31272600003 1.01250708119e-17)
(56.3998755743 8.34215044658 -2.29191317382e-18)
(56.2392051418 8.36990138216 -7.18863128973e-18)
(56.0821410019 8.39628094165 -7.42559074827e-18)
(55.9285125901 8.42123312503 1.53349202869e-18)
(58.4831917837 9.08832673448 3.32832806722e-18)
(58.2621208378 9.1282212968 1.64124051948e-17)
(58.0461420058 9.16236818295 -3.48605405782e-18)
(57.8354843448 9.19125588732 -6.3483496177e-18)
(57.6303273216 9.21538337985 2.65185935754e-19)
(57.4308058276 9.23524710061 1.06764216291e-19)
(57.2370071405 9.25129849303 2.19327371443e-19)
(57.0489863012 9.26396093291 6.00890962331e-18)
(56.8667840687 9.27367925845 -1.78634912804e-19)
(56.6904201295 9.28092182865 -3.13945117406e-18)
(56.5198849344 9.28616036643 -8.61857689233e-18)
(56.3551376814 9.28987992601 5.70868300262e-18)
(56.1960888583 9.29253890084 8.31795460057e-18)
(56.0427017258 9.29421151666 4.19027181395e-18)
(58.6164352427 10.4748634888 3.94053924196e-18)
(58.3630791662 10.4749040649 -3.55244952694e-22)
(58.1179526869 10.4682130516 -4.01633746883e-18)
(57.8812327261 10.4556440066 4.13700019814e-18)
(57.653068218 10.4380149505 1.49837702503e-17)
(57.4335995396 10.4159656445 -5.04272696543e-19)
(57.2229417498 10.3900137541 -1.07496652429e-17)
(57.0211557337 10.3607176913 -1.04626313369e-17)
(56.8282645676 10.3286962659 3.50159300656e-18)
(56.6442743537 10.294625808 6.75626580057e-18)
(56.4692488754 10.259178346 -3.29346368382e-18)
(56.3032063807 10.2229755514 -3.5870341716e-20)
(56.1459177755 10.186555287 3.06585086586e-18)
(55.9974352239 10.1500625682 -2.15761070271e-17)
(58.3970990066 11.9282323299 5.66667614622e-18)
(58.1065700099 11.8756767994 -1.21098310302e-19)
(57.8304944537 11.815649712 -3.56762265516e-19)
(57.5689524793 11.748872789 -4.46494186029e-18)
(57.3212852871 11.6760726386 -8.54504428681e-18)
(57.0863583248 11.5981491825 -8.92468051598e-18)
(56.8637358176 11.5161892334 4.05821614069e-18)
(56.6536298182 11.4312890565 4.22131577059e-18)
(56.4564617067 11.3444749155 5.02722982928e-22)
(56.2724450292 11.2566559877 3.89860226702e-18)
(56.1011892858 11.1686532515 -2.79058983708e-20)
(55.9421718394 11.08120429 -2.75914407305e-19)
(55.7948820712 10.9949517038 -3.52249539562e-20)
(55.6599535341 10.9102520462 2.46337177362e-18)
(57.8208292109 13.7329566243 3.17515688845e-17)
(57.4976482326 13.5831097455 -2.87435988878e-20)
(57.1917465393 13.4249916465 -1.76145694564e-17)
(56.9027129103 13.2600626895 -1.1701713702e-17)
(56.6319388704 13.0898023229 5.26199617829e-18)
(56.3814029445 12.9157262263 2.69665271068e-17)
(56.151756674 12.7393240022 -4.77737797132e-18)
(55.942251178 12.5619290011 -2.40346094731e-17)
(55.7516436767 12.3847825143 6.93787868593e-21)
(55.5788804349 12.2089425942 -4.36754721496e-18)
(55.423370075 12.0353736966 -8.26137671894e-18)
(55.2846925069 11.8650386288 -7.72476788998e-20)
(55.1620432646 11.6988696739 2.54468871126e-17)
(55.0560972099 11.5376794956 8.22040099953e-18)
(56.4244121977 15.3823501233 -8.62918174189e-18)
(56.0599165811 15.106681885 -2.34748750578e-17)
(55.7270649389 14.8246747405 -3.01484986481e-17)
(55.425703039 14.5386885308 7.2170402712e-18)
(55.1544493176 14.2509431842 2.71948287887e-17)
(54.9114360139 13.9633080673 -6.2304285019e-18)
(54.6951429389 13.6773304507 -2.2689054233e-19)
(54.5045944107 13.3944409019 -1.49387296059e-19)
(54.3389610028 13.1160000701 2.35678756843e-19)
(54.1974103451 12.8433289491 1.41102590486e-17)
(54.0790939336 12.5776884357 -1.29488406507e-17)
(53.9831931639 12.3203049189 -8.61869553161e-18)
(53.9083046567 12.0721949103 1.18721737778e-17)
(53.8560333769 11.83457594 -3.97660942518e-18)
(54.2904947671 17.4449217099 -1.05288623542e-19)
(53.9210504386 16.9625144827 2.18529498263e-19)
(53.5941622079 16.4822132451 8.79004153651e-18)
(53.3084031904 16.0059446722 8.00597593053e-18)
(53.0620956472 15.5354234674 1.52939104539e-17)
(52.8536343031 15.0722158036 -6.11355293898e-18)
(52.6815335366 14.6177639551 -3.25601975862e-17)
(52.5443691895 14.1733543077 5.96916862489e-18)
(52.4406112545 13.7401516811 1.07593374804e-17)
(52.3686260893 13.3192879122 9.69451087223e-18)
(52.3266038865 12.9118127906 -2.73040643816e-17)
(52.3127134452 12.5186140616 -1.20039990307e-17)
(52.3244896896 12.1403090778 1.11841916928e-17)
(52.3632102073 11.7781236682 -8.61695593131e-18)
(50.6783697237 18.7399587091 2.83750069611e-19)
(50.3635956686 18.0143203542 -3.31804319995e-17)
(50.1013592939 17.3003577061 -4.18386506436e-17)
(49.88840758 16.6000643139 4.71826392151e-17)
(49.7218786437 15.9153548479 5.96664070715e-17)
(49.5991323012 15.2482325884 -4.06554447306e-17)
(49.5178781929 14.6007939862 -4.23490308302e-17)
(49.4759117269 13.9752420903 7.85463683934e-21)
(49.4709917183 13.3736198171 4.16613728532e-19)
(49.5004916754 12.7976724154 9.208857715e-18)
(49.5610424462 12.2490320651 3.61857401819e-18)
(49.6496648201 11.7292613727 9.03551980318e-19)
(49.7631589304 11.2401239093 -6.15582313258e-18)
(49.9050552472 10.7841155475 -4.73483295242e-18)
(45.602744582 19.9079199037 -4.43453222523e-20)
(45.4553549775 18.8794280794 -1.32440060326e-17)
(45.3598772455 17.8862144342 2.39344282474e-17)
(45.3136392691 16.929211736 2.02050771032e-17)
(45.3151906401 16.0090794673 -1.99189803241e-17)
(45.3638627022 15.124542425 -9.24804048168e-18)
(45.4593587771 14.2765908493 -6.53754877081e-18)
(45.6009998508 13.4644120749 5.04726223743e-18)
(45.7888212602 12.6907720555 -1.27907875779e-17)
(46.0230526588 11.9635743221 -3.84252378743e-18)
(46.3022511534 11.2847578686 1.19092211138e-17)
(46.6293219395 10.6488167666 -4.03536432586e-20)
(46.9987560742 10.0532721174 3.30105595445e-18)
(47.4054903909 9.49218919286 3.7778689362e-18)
(37.83432296 17.9763458279 2.96153727823e-17)
(38.0908982129 16.8094299465 4.04714049384e-17)
(38.3871401004 15.6787775076 -2.52186407885e-17)
(38.723340901 14.5800938013 -5.74251317792e-17)
(39.1002086351 13.5089536231 2.07692643646e-17)
(39.5174318546 12.4620252807 2.80477152012e-17)
(39.9719966618 11.4362300164 -1.74325550549e-17)
(40.460139748 10.431434247 1.34392057824e-18)
(40.9762485649 9.44955713571 1.29324046988e-17)
(41.5166039101 8.49241746063 -2.06100428928e-18)
(42.069028835 7.5626047036 3.77599814168e-19)
(42.6282841206 6.67031449276 1.51807902751e-18)
(43.1773906924 5.83376338755 3.70554918732e-19)
(43.6998740263 5.08040375993 3.94772513488e-19)
(53.268132462 0.347694650064 -4.24917885671e-18)
(53.1762332663 0.351480449661 -2.38032352743e-19)
(53.0811259823 0.355278135126 2.65512212105e-18)
(52.9826896846 0.359108186212 1.83622191045e-18)
(52.8807827495 0.362973317421 -1.72130226169e-18)
(52.7752883946 0.366868761884 1.46080672995e-18)
(52.6660868586 0.37079098354 -1.10889058102e-18)
(52.553047024 0.374739006809 -4.29539838305e-18)
(52.4360301906 0.3787101858 5.75316167493e-18)
(52.3148958455 0.382701758351 3.35028670061e-18)
(52.1895012826 0.386712134987 1.85870428375e-19)
(52.0596995838 0.390743453544 1.31561147179e-18)
(51.9253394874 0.394794654376 2.68639035009e-19)
(51.7862621599 0.398856123037 -5.20530077559e-18)
(51.6423017587 0.402920849514 6.03570239827e-18)
(51.4932888478 0.406985461603 3.2017210901e-19)
(51.3390502207 0.411043808632 2.3818850786e-18)
(51.1794095749 0.415088547754 3.45403172806e-18)
(51.014187589 0.419114187793 -6.29302367639e-18)
(50.8432017417 0.423114026074 -2.98705801926e-18)
(50.6662647005 0.427077502903 -3.07420246153e-18)
(50.483183717 0.430992775396 7.48716716564e-21)
(50.2937620637 0.434843366681 2.52782068456e-18)
(50.0977986043 0.438608368049 2.61165541056e-18)
(49.8950932345 0.442265679036 -7.36563185162e-18)
(49.6854514561 0.445790850627 -2.89794411171e-18)
(49.4686815626 0.449156122879 7.42097789656e-18)
(49.2445956713 0.452329258798 -6.62668022796e-18)
(49.0130150749 0.455272882419 5.82549498495e-18)
(48.7737736854 0.457943962951 5.48300676289e-18)
(48.5267220473 0.460292944223 -7.16195264219e-18)
(48.2717333845 0.462262786934 2.37525837362e-18)
(48.0087106149 0.463787833019 -4.20723000389e-18)
(47.7375947344 0.464792463076 -1.16608178969e-19)
(47.4583753236 0.465189418156 -1.56424919929e-18)
(47.1711034304 0.46487778451 1.65806545801e-18)
(46.8759073919 0.463740742024 4.03348123893e-18)
(46.5730125273 0.461642430414 -1.98193973291e-18)
(46.2627654748 0.458425411674 -1.75851014024e-20)
(45.9456591259 0.453907833618 3.5435141992e-20)
(45.6223660595 0.447878129271 -2.83030853317e-20)
(45.2937857595 0.440088074765 -3.91295180567e-20)
(44.9610970081 0.430249138215 6.26563643988e-18)
(44.6258164064 0.418022313247 -1.08805084573e-18)
(44.2898780952 0.403007820553 -6.91722906505e-18)
(43.9557243155 0.384736879938 1.60543605084e-18)
(43.6264173993 0.362662051376 0)
(43.3057814575 0.336134855719 -1.39639934467e-18)
(42.9985473057 0.304385062477 3.97364409826e-21)
(42.710599045 0.266524980545 -1.39141707185e-18)
(42.4491047882 0.221580376936 2.8308757491e-18)
(42.2229639344 0.168462283425 -2.64694745783e-18)
(42.0428103574 0.106104844932 -1.04096842438e-18)
(41.9216567758 0.0333696925172 1.04255569791e-18)
(41.8749919935 -0.0509102753263 2.51654061578e-18)
(41.9212101392 -0.14801624506 1.76045057666e-17)
(42.0818090089 -0.258918191822 -6.46448935591e-18)
(42.3817987273 -0.385065850051 -2.11309282163e-17)
(42.8501765689 -0.527646997849 9.36443787221e-18)
(43.518744273 -0.687388997305 8.23828254241e-18)
(44.4217784342 -0.864105327525 -1.06800715711e-17)
(45.5994508059 -1.05598714457 3.26953367915e-18)
(47.0793257731 -1.26035248299 -8.77147082549e-20)
(48.9120439132 -1.47169745977 2.21894374736e-18)
(51.1044780881 -1.67816354927 4.85068274402e-18)
(53.6311711665 -1.87376198118 -7.50332317801e-19)
(56.5649541399 -2.05254335182 2.55358172901e-19)
(59.8561957886 -2.17149206019 -2.60078541995e-18)
(63.3948146036 -2.23075594371 -1.74775658858e-19)
(67.0795593688 -2.21385743743 8.30287793305e-18)
(70.7738816931 -2.10906737937 2.94192476411e-18)
(74.2971109826 -1.91223846682 -2.76175160269e-19)
(77.4483736965 -1.62913951203 -4.22893721404e-18)
(80.0317176244 -1.2778734424 0)
(81.8872372367 -0.887525526293 1.03202407486e-17)
(82.9012568427 -0.491625377201 -3.51415416162e-19)
(83.0905388771 -0.12304068722 -6.14448036369e-18)
(82.3811381933 0.194762705251 2.07096834054e-18)
(81.4582924776 0.42919083673 -1.17207845167e-18)
(78.454042453 0.632619341731 -1.55098207227e-18)
(53.3544619091 1.1847120287 4.80027728132e-18)
(53.2616702918 1.19517581348 2.34205531473e-18)
(53.1655895124 1.2057163936 -4.55152539886e-18)
(53.0662013166 1.21639732128 1.17965675913e-19)
(52.9633663396 1.22721572797 -3.80411342829e-18)
(52.8569411442 1.23816116789 5.17066391527e-18)
(52.7467951001 1.24922697156 4.4049548866e-18)
(52.6327989782 1.26040855151 -5.77792174895e-18)
(52.5148161777 1.27169907703 -5.18948770405e-18)
(52.3927043251 1.28309256002 -2.15089277449e-18)
(52.2663180343 1.29458925518 5.46305572626e-18)
(52.1355081907 1.30619253916 1.85582971408e-18)
(52.0001169462 1.31789072423 4.88739265913e-21)
(51.8599779327 1.32966118664 -1.38545844032e-20)
(51.7149209964 1.34148980327 9.20932935281e-18)
(51.5647720678 1.35336523369 3.63160467813e-18)
(51.409351999 1.36527122834 -1.09353902619e-17)
(51.248477068 1.37719142269 -3.28410517224e-18)
(51.081960792 1.38911699748 1.45941220104e-18)
(50.9096116959 1.40103109911 -4.09423178291e-18)
(50.7312300838 1.41290569391 -4.23776902191e-18)
(50.5466103983 1.42471178258 4.13490948365e-18)
(50.3555404931 1.43640314026 4.30878910318e-18)
(50.1578019689 1.44792543088 1.6639876632e-19)
(49.9531760886 1.45922485468 4.77430500468e-18)
(49.7414459892 1.47023926087 -4.50511413813e-18)
(49.5223944591 1.48089761536 -7.26357093887e-19)
(49.295804774 1.49111726713 5.05677342544e-18)
(49.061464933 1.50080147002 -5.08134772447e-18)
(48.8191707964 1.50983683785 -2.05148252793e-18)
(48.5687297767 1.51809026578 4.14207019627e-18)
(48.3099661189 1.52540537815 5.2993784666e-19)
(48.0427274225 1.53159837247 -4.49845764059e-18)
(47.7668926348 1.53645318084 2.10845821471e-18)
(47.4823820315 1.5397158399 -1.74257969623e-18)
(47.1891695212 1.54108806899 -5.5166354987e-18)
(46.8872979786 1.54021993758 1.57082520592e-18)
(46.5768983879 1.53669969174 9.37928757007e-18)
(46.258213537 1.53004456029 -6.4193187127e-18)
(45.9316227878 1.51969201136 8.85432274459e-19)
(45.59767491 1.50498268371 1.36511191992e-17)
(45.2571351466 1.48514001167 -1.64163817086e-18)
(44.9110353006 1.45925255635 -5.16663090509e-18)
(44.5607351929 1.42625216119 3.98838880141e-20)
(44.2079962758 1.38489009318 -1.43384874323e-18)
(43.8550779843 1.3337060217 -3.88524980766e-18)
(43.5048446921 1.270998168 -4.18837822831e-18)
(43.1609042678 1.19478616572 -1.06082521307e-17)
(42.8277693857 1.10275907578 -1.9349103991e-18)
(42.511046728 0.992258700255 1.42487905877e-17)
(42.2176750896 0.860175407409 -2.15937931215e-18)
(41.9561802769 0.703098374178 2.29814579024e-18)
(41.7371502743 0.516940907899 1.32396112695e-17)
(41.5734489925 0.297509566728 -9.80379356927e-18)
(41.480965856 0.0398151269878 -4.2945186118e-18)
(41.4786357465 -0.260944974263 6.55606084563e-19)
(41.5896838913 -0.609501973486 3.68540965819e-18)
(41.8406760329 -1.01003542512 -2.43099099648e-18)
(42.2627522404 -1.4652023852 -4.55787414153e-18)
(42.8908258747 -1.97578585123 7.55244475816e-18)
(43.7654125812 -2.54042821272 2.81843044917e-18)
(44.9334915556 -3.15263907033 6.22782567678e-18)
(46.4354180613 -3.80221070968 -2.43402508465e-18)
(48.3138500649 -4.47774223282 -1.06686605507e-18)
(50.6012017427 -5.14297456957 3.69185899207e-18)
(53.3063254704 -5.75273930129 -3.47586444204e-18)
(56.4184325346 -6.27273525027 9.71722997353e-20)
(59.880491587 -6.65403707554 -1.40687560893e-18)
(63.6373743246 -6.82842874965 -4.49055947121e-18)
(67.5649577623 -6.73725775167 -6.9989107973e-19)
(71.5006647044 -6.34545878168 -9.4355701369e-18)
(75.2395395702 -5.64246295676 -1.26847699758e-17)
(78.5533480049 -4.64955285659 7.93384461138e-18)
(81.2212595059 -3.42902902265 4.06658490906e-18)
(83.0705368852 -2.08494086744 2.42424919964e-18)
(83.9893211153 -0.748940604273 -1.0769156376e-17)
(84.0176170531 0.445951649715 -2.26518770154e-18)
(83.0791113086 1.40103150501 3.46098612836e-18)
(81.9626821578 2.03046608722 -2.46590814035e-18)
(78.6551613777 2.45160952068 0)
(53.4886427509 1.89621790312 2.20942358972e-18)
(53.3951799799 1.91377941162 2.41231472698e-18)
(53.2984856913 1.93147724264 -2.2114796444e-18)
(53.1984441928 1.94940265364 -8.28337071024e-18)
(53.0949168993 1.96755293663 -2.86884720511e-19)
(52.987792259 1.98592221333 6.26252256103e-18)
(52.876952538 2.00450446154 -1.81856342394e-18)
(52.7622652755 2.02329311214 -1.93983508954e-18)
(52.6435912104 2.04228252304 8.58984762766e-20)
(52.5207909764 2.06147208529 1.8444698674e-18)
(52.3937218931 2.08086296692 1.91040598449e-18)
(52.2622307394 2.10044428416 3.33839706421e-18)
(52.1261539282 2.12019508707 3.46032805242e-18)
(51.9853234376 2.14009819216 -9.49353795082e-18)
(51.8395673077 2.16013921568 -9.81212815604e-18)
(51.6887072583 2.18030034808 3.43006087041e-19)
(51.5325586651 2.20056249919 1.70879887944e-18)
(51.3709326633 2.22091139088 8.91129482296e-18)
(51.2036344186 2.24133209879 4.79675201148e-18)
(51.0304566971 2.26179350702 -3.08075600602e-18)
(50.8511836663 2.28225665683 -3.538273585e-20)
(50.665591963 2.30267701529 -9.01184165178e-18)
(50.4734453512 2.32298914021 -2.7612013893e-18)
(50.274500641 2.34312115601 1.43261877782e-17)
(50.0685121286 2.36299819178 9.81400991486e-18)
(49.8552291894 2.38253068303 -7.11420450447e-18)
(49.6343948299 2.40161427668 -7.67964801861e-18)
(49.4057475606 2.42012619111 1.10762123686e-17)
(49.1690239084 2.43792133601 4.70301491736e-19)
(48.9239605135 2.4548280982 -9.11854684261e-18)
(48.6702971082 2.47064337926 -5.98183300096e-18)
(48.4077807041 2.48512674528 1.71504373742e-18)
(48.1361708789 2.49799365162 6.234324743e-18)
(47.8552463354 2.50890764806 -2.08203415505e-18)
(47.5648132531 2.51747134184 4.00847344136e-20)
(47.2647157845 2.52321579848 -3.32426369498e-20)
(46.9548492383 2.52558799398 -1.0436902818e-17)
(46.6351769997 2.52393403585 -5.7146393759e-19)
(46.3057525245 2.51748285703 7.5780553737e-18)
(45.9667413483 2.50533167551 1.6611943317e-18)
(45.6184498999 2.48642038111 3.82462554338e-18)
(45.2613692922 2.45949890495 -2.06970383303e-18)
(44.8962231728 2.42309537391 2.97129125348e-19)
(44.5240254812 2.37547929655 1.88934034309e-19)
(44.1461541356 2.314617814 8.79626137348e-18)
(43.7644414888 2.23812383886 -6.34230580904e-19)
(43.3812895815 2.14319725465 -1.27050049112e-17)
(42.999814013 2.02655955245 1.10848199937e-18)
(42.6240073369 1.8843820535 4.27986459632e-18)
(42.2589529856 1.71221214255 -7.57908799909e-19)
(41.911117055 1.50489819682 -4.19799393738e-18)
(41.5886698979 1.25650911758 4.10867897431e-18)
(41.3018714961 0.96026465569 7.58588118788e-18)
(41.0635092748 0.608501542536 -5.51131435923e-18)
(40.8894527483 0.192801409046 -3.58709334015e-18)
(40.7989294935 -0.295642497966 1.18464136022e-20)
(40.8154341862 -0.865789296374 -3.22329378964e-19)
(40.9678375815 -1.52580529882 -3.50953266752e-18)
(41.2939002766 -2.2838340506 -1.83621988687e-18)
(41.8409292224 -3.14706574491 2.71724297087e-18)
(42.6640390443 -4.12223082985 -4.04810961306e-18)
(43.8159002352 -5.2068752822 1.80300680283e-19)
(45.3373859033 -6.37602036712 1.07021425256e-17)
(47.2535008094 -7.58329708573 -1.77830002548e-18)
(49.5800613916 -8.76817707799 -3.95265550975e-18)
(52.3369318638 -9.86193265127 4.29086765676e-18)
(55.5453493017 -10.7898487161 -1.44703354902e-18)
(59.2045775456 -11.4661006847 1.33162059622e-18)
(63.2664745305 -11.7902729004 -2.8468095292e-19)
(67.6165124216 -11.6616072573 -8.41256833729e-18)
(72.0621706091 -10.9996931034 2.20144212351e-17)
(76.3359817192 -9.77245503111 -7.80339834208e-18)
(80.1220067083 -8.02180074068 -2.00892647365e-17)
(83.1078188689 -5.87559611493 2.31693182995e-17)
(85.061817267 -3.53294846208 5.05761895148e-18)
(85.868087199 -1.23032703273 -1.45283124995e-17)
(85.6188895098 0.817498183208 1.09606337948e-17)
(84.2843587548 2.44883818724 4.7104996576e-19)
(82.8011206467 3.50879689145 2.47305961853e-18)
(79.1448215205 4.16717611551 1.5869773922e-19)
(53.6945872216 2.70330873916 -2.84655740733e-18)
(53.5991155071 2.72674071711 2.07613325183e-18)
(53.5003130206 2.75031719339 2.29692263784e-18)
(53.3981974548 2.77417484084 -5.95304577515e-18)
(53.2926456344 2.79831830454 -4.13101263727e-18)
(53.1835235302 2.82274409905 6.16342710899e-18)
(53.0707036105 2.8474473285 9.65110557756e-18)
(52.9540576312 2.87242474237 2.09587583664e-18)
(52.8334542031 2.89767978667 -1.28327389126e-17)
(52.7087573834 2.92321904893 -7.48859184058e-18)
(52.5798183718 2.94903563179 7.08884069844e-18)
(52.4464763855 2.97511085738 3.78108445821e-18)
(52.3085663639 3.00143104159 -3.43156787497e-18)
(52.1659191653 3.02798693771 1.64415957941e-18)
(52.0183582106 3.05476656391 9.53170031975e-18)
(51.8656990668 3.08175739643 2.7979944134e-19)
(51.707752074 3.1089532486 -6.39135978567e-18)
(51.5443203017 3.13634854227 -1.45186983324e-18)
(51.3751899147 3.16391907595 -2.64337676356e-18)
(51.2001340245 3.19163279098 1.27049445521e-18)
(51.0189196218 3.21945775149 2.81699141816e-18)
(50.8312968758 3.24733947044 -7.40142696265e-18)
(50.6369988481 3.27520935058 -5.26467542947e-19)
(50.4357507327 3.30299673825 1.02092960784e-17)
(50.2272689311 3.33061895687 2.08058757754e-19)
(50.0112570275 3.35797736807 -1.33055669463e-19)
(49.7874049936 3.38495440213 2.37912318369e-18)
(49.5553905769 3.41140869443 -2.25841960976e-18)
(49.3148798658 3.43716997285 -1.93867333769e-19)
(49.0655284 3.46203347471 6.71212684587e-20)
(48.8069829407 3.48575342325 -2.19594549515e-18)
(48.5388839529 3.50803529421 5.5187853414e-18)
(48.2608689816 3.5285267354 1.51385791373e-19)
(47.9725771058 3.54680697911 -7.82094986023e-18)
(47.673654821 3.56237444307 -2.25515363644e-19)
(47.36376373 3.57463205611 5.55170902125e-18)
(47.0425906673 3.58286992681 3.16808953957e-19)
(46.7098605628 3.58624211603 -3.89238707208e-18)
(46.3653539672 3.58374368365 0)
(46.0089245184 3.57419065607 -1.42622085874e-19)
(45.6405217128 3.55618485814 2.69690188086e-18)
(45.2602285899 3.52806703505 -3.75874887253e-18)
(44.8683033363 3.48786978572 -6.62947523566e-18)
(44.465228855 3.43326262414 8.84847467764e-18)
(44.0517802361 3.36148496757 -6.74169928134e-19)
(43.6291092566 3.26926809204 -5.8045186643e-18)
(43.1988484186 3.15274349196 3.9708782717e-18)
(42.7632441354 3.00734232973 -1.40393364406e-18)
(42.3253444206 2.82767022845 6.62711765187e-18)
(41.8892539162 2.60735381862 3.94484612284e-19)
(41.460432642 2.3388619461 8.48966122091e-19)
(41.0460706464 2.01333101038 6.56396196596e-19)
(40.6553706304 1.62053450839 -1.47562760511e-17)
(40.2998853388 1.14898120582 3.54867051394e-18)
(39.9942406099 0.586436583454 7.02554403469e-18)
(39.7572676771 -0.0804756850615 -9.62233404395e-19)
(39.6171993711 -0.868114675098 4.7731266979e-18)
(39.613918065 -1.79787464087 8.21709685042e-18)
(39.7963944804 -2.89486649986 -2.45368286971e-18)
(40.2129868411 -4.17804250531 -2.71798614461e-19)
(40.8911505358 -5.63770409792 -6.72629345391e-18)
(41.8334473754 -7.2259451306 -1.33021669147e-18)
(43.0430718776 -8.8765179328 3.42038747927e-18)
(44.5676117315 -10.536296957 -6.30882367495e-18)
(46.5088532833 -12.1764561407 -1.00684844301e-17)
(48.996376056 -13.7650342493 5.81078124415e-18)
(52.1341180226 -15.2235937856 -7.27298924332e-19)
(55.9596378917 -16.419631003 -2.39936395727e-18)
(60.4279014024 -17.1588063785 -1.24418379583e-17)
(65.4030118534 -17.2283216474 1.49550967699e-17)
(70.6582334916 -16.4461922759 1.47644895741e-17)
(75.8730080486 -14.7125683882 -4.07410832488e-18)
(80.6407245031 -12.0627246833 9.07564064016e-19)
(84.5120605758 -8.71065072218 -9.47824551287e-18)
(87.0895509505 -5.01580771883 -2.61366942447e-18)
(88.1458837662 -1.43454501857 1.62495191885e-17)
(87.7777561911 1.68643358495 2.21469588231e-18)
(85.9961479209 4.0936229054 1.10484281573e-18)
(83.9786242558 5.5512853748 8.32704482995e-18)
(79.5120300379 6.27140370105 1.78725879947e-18)
(53.9429739709 3.44850756455 4.73663419585e-20)
(53.8458339861 3.47765062696 -9.04574273524e-18)
(53.7454161961 3.50698861408 -4.27196289779e-18)
(53.6416938631 3.53669804696 2.23369424148e-18)
(53.5345544368 3.56678744687 4.15942092378e-18)
(53.4238894087 3.59725872046 2.18897858484e-18)