/*--------------------------------*- C++ -*----------------------------------*\
  =========                 |
  \\      /  F ield         | OpenFOAM: The Open Source CFD Toolbox
   \\    /   O peration     | Website:  https://openfoam.org
    \\  /    A nd           | Version:  7
     \\/     M anipulation  |
\*---------------------------------------------------------------------------*/
FoamFile
{
    version     2.0;
    format      ascii;
    class       volVectorField;
    location    "1";
    object      U_0;
}
// * * * * * * * * * * * * * * * * * * * * * * * * * * * * * * * * * * * * * //

dimensions      [0 1 -1 0 0 0 0];

internalField   nonuniform List<vector> 
7540
(
(54.5716605183 0.278498262725 2.33124086485e-18)
(54.4675500284 0.284772117149 -6.35181489267e-18)
(54.3618148309 0.290928488662 -2.54641384102e-18)
(54.2544731713 0.296959626416 9.25807841146e-18)
(54.145486556 0.302873966528 -6.22874601241e-21)
(54.0348954582 0.308679386963 -8.21920543124e-18)
(53.9227615156 0.314379145922 -8.24396279676e-18)
(53.8091249374 0.319974949 1.43256827227e-18)
(53.6940153227 0.325468539108 8.3806121316e-21)
(53.577461432 0.330862721056 -1.40618206383e-20)
(53.4594951831 0.336164009326 8.72250063249e-18)
(53.3401459229 0.341376272177 2.07961355549e-21)
(53.2194517535 0.346494462811 -4.49008777455e-18)
(53.0973413891 0.351499787964 0)
(54.6715592024 0.995252693435 -1.34536477867e-18)
(54.5663462312 1.01253101318 2.5544329164e-18)
(54.4594200104 1.02955340096 7.02492872832e-20)
(54.3508902719 1.04630572937 -1.21600701427e-18)
(54.2408439415 1.06278571328 -1.33746811887e-18)
(54.1292779957 1.07899608343 1.41517307857e-18)
(54.0161895524 1.09493895899 -1.43968322807e-18)
(53.9016045833 1.11061509249 -2.32391965656e-20)
(53.785557144 1.12602582083 8.52567512172e-18)
(53.668080843 1.14117893384 2.81983126468e-18)
(53.5492081226 1.15608575784 -7.27660410435e-18)
(53.4289641131 1.17074326049 3.06361602046e-21)
(53.307376974 1.18514002288 -1.51313606466e-20)
(53.1843687382 1.19919047333 -4.49605588778e-18)
(54.8274930993 1.5779866596 -1.26745185627e-18)
(54.7205464096 1.60687673392 -5.09937216939e-18)
(54.6119857614 1.63531564321 -1.18769920735e-18)
(54.5017861176 1.6633095028 -1.33991686536e-18)
(54.389998835 1.69085378467 2.65381461496e-18)
(54.2766879381 1.71794613365 2.81913952119e-18)
(54.1618921246 1.74458945632 4.8035824873e-20)
(54.0456387251 1.77078945278 -2.92190604876e-18)
(53.9279602714 1.79655754986 -1.52123542772e-18)
(53.8088926851 1.82190717439 5.79190047147e-20)
(53.6884655639 1.84684051588 2.93216521407e-18)
(53.5666964099 1.87135245047 2.94043625266e-18)
(53.4436249501 1.8954359951 -7.34470120476e-18)
(53.3191364972 1.91900992582 -9.4422923837e-19)
(55.072631735 2.27522004393 2.72361481106e-18)
(54.9623039927 2.31449053898 -1.46765311061e-20)
(54.8504184343 2.35307475684 -3.89763164194e-18)
(54.737016163 2.39098392248 6.79162113851e-18)
(54.6221338834 2.42822946605 1.30015020588e-18)
(54.5058079585 2.46482130483 -7.00946437244e-18)
(54.3880753916 2.5007702374 8.98675784292e-20)
(54.2689754799 2.53609299603 1.15387257895e-17)
(54.1485468046 2.57081073808 -1.50074584083e-19)
(54.0268178999 2.60493227245 -5.99112755554e-18)
(53.9038107158 2.63845432257 -1.08571337965e-21)
(53.7795440048 2.671378436 -1.40751937208e-18)
(53.6540581379 2.70371139658 4.71346891376e-18)
(53.527209749 2.73530049125 -4.11310314559e-18)
(55.3685094881 2.91279549729 6.5205208269e-18)
(55.2540439763 2.96207532972 2.88992708423e-18)
(55.1381226552 3.01045598136 -8.45291560046e-18)
(55.0207939003 3.05795342506 2.8079919708e-18)
(54.9021010395 3.10458519544 1.5170895848e-18)
(54.7820908497 3.15037508876 2.94319825311e-18)
(54.6608079712 3.19534846299 -7.20743249198e-20)
(54.5382915142 3.23952731575 -1.48499820065e-18)
(54.4145739475 3.28292810422 5.79607845839e-20)
(54.2896787008 3.32555963739 -3.07624557214e-18)
(54.1636313085 3.36743273876 -1.57572998072e-18)
(54.036452065 3.40856581615 -9.29408616611e-18)
(53.9081919812 3.44897054095 -3.09230223476e-18)
(53.7786573646 3.48850938052 1.10230916016e-17)
(55.7357261921 3.63363303709 -5.69568572984e-18)
(55.6153492091 3.6915980865 -6.97027518147e-18)
(55.4936963873 3.7483580546 1.17155765478e-17)
(55.3708334876 3.8039469485 -6.54953496778e-20)
(55.2468220854 3.85840761998 -8.95244605065e-18)
(55.1217198735 3.91178517861 1.14718415904e-19)
(54.9955681216 3.96411074726 1.66686239644e-18)
(54.8683987681 4.01540888887 3.12919484075e-18)
(54.7402437203 4.06570522801 8.10292733017e-18)
(54.6111330577 4.11502828186 -1.65567450752e-18)
(54.4810984322 4.16341228016 -4.75553555076e-18)
(54.3501608385 4.21089478375 -1.43283031186e-19)
(54.2183748806 4.25751230006 -1.74977687971e-18)
(54.0855075531 4.30307777949 1.90276986774e-18)
(56.1387822688 4.35437831737 1.77476105294e-18)
(56.0110439078 4.4196071456 -1.7831131092e-19)
(55.8823301561 4.48331182589 1.61170734638e-18)
(55.7527252816 4.54555893433 -9.37021833739e-18)
(55.6223044599 4.60641696676 -1.53101178796e-18)
(55.4911204915 4.66593590403 9.55619189979e-18)
(55.3592086255 4.72415321751 -3.28484498268e-18)
(55.2266073448 4.78111603092 -8.07843842616e-18)
(55.0933581634 4.83687936259 5.06281692492e-18)
(54.9594967387 4.89150099795 6.50771738947e-18)
(54.8250581741 4.94504355813 -1.79776262316e-18)
(54.6900661331 4.99757620755 -1.59037143262e-18)
(54.5545845348 5.04915846308 -4.88049051411e-18)
(54.4183296764 5.09961089448 7.89865320021e-18)
(56.5839933731 5.1488073008 1.92473179353e-18)
(56.4467266066 5.21897550201 -1.58514165801e-18)
(56.3089616815 5.28719522857 -3.48092490807e-18)
(56.1708032414 5.3535714834 -5.1500407853e-18)
(56.0323211139 5.41818529278 6.74826220262e-18)
(55.8935637382 5.48110052913 8.59843295998e-18)
(55.7545813075 5.54239315851 -5.1576574492e-18)
(55.6154272565 5.60215328586 -5.29041705259e-18)
(55.4761491901 5.6604749099 3.32916735337e-18)
(55.3367861224 5.71745681847 1.81137986562e-18)
(55.1973810717 5.77321011972 -1.84986702179e-18)
(55.0579587485 5.82784473471 -3.62389249548e-20)
(54.9185711183 5.88144216825 1.90948195085e-18)
(54.778881381 5.93377901943 -7.05818517768e-19)
(57.0353717733 5.9903853228 1.22539611619e-19)
(56.8861823411 6.06198606246 9.61420855987e-18)
(56.7371997818 6.13116536361 1.99624485953e-18)
(56.5885287163 6.19805283142 -7.84557762727e-18)
(56.4402392272 6.26275697455 5.68594274762e-18)
(56.2924020613 6.32540011003 3.92888722992e-18)
(56.1450893084 6.38612162434 -9.49669340793e-18)
(55.998363212 6.44506622307 -6.97710837077e-20)
(55.8522759594 6.50238320378 5.6792471138e-18)
(55.706875405 6.55823381563 3.36053949352e-20)
(55.5622043769 6.61278165818 -7.25897017577e-20)
(55.4182650259 6.66616239029 -9.23504365985e-18)
(55.2750877925 6.71847846057 -1.46881087565e-20)
(55.1323265284 6.76953281793 8.59710211134e-18)
(57.4760527918 6.91434324475 -2.61684767282e-18)
(57.3121704103 6.98296757599 -2.12690119819e-18)
(57.1495495099 7.04850695087 2.51222148591e-18)
(56.9883051151 7.1111417569 -1.52297053064e-19)
(56.8285324913 7.17105916944 2.11097016167e-18)
(56.6703233809 7.22846812359 2.32929737151e-18)
(56.5137568791 7.2835859973 -1.931490871e-18)
(56.3588966313 7.33663473413 2.10501993493e-18)
(56.2057963753 7.38784648899 -2.28790019117e-18)
(56.0544958914 7.43745491326 2.03603750353e-18)
(55.9050066376 7.48566467129 -4.15831063759e-18)
(55.7572997436 7.5326548161 -1.89444426091e-18)
(55.6113894904 7.57860006637 3.93860131676e-18)
(55.4669397401 7.62333981532 -7.54040470413e-18)
(57.8646008624 7.93076314271 -5.13475963643e-18)
(57.6824823536 7.98808388396 -1.78154145858e-17)
(57.5030893149 8.04159693548 6.79767716085e-20)
(57.3265720771 8.09161137582 2.44447396864e-18)
(57.153055916 8.13844403629 1.10658152308e-20)
(56.982648065 8.18242147437 9.12672464008e-20)
(56.8154382114 8.22387630519 8.94326016712e-20)
(56.6514915762 8.26313462247 1.44988244105e-17)
(56.4908485193 8.3005122147 2.32837926421e-20)
(56.3335227421 8.33630945983 -4.44878292627e-18)
(56.1794997847 8.37080447168 -2.22418203867e-18)
(56.0287375078 8.40427500389 -6.85828253592e-18)
(55.8812121527 8.4369900587 -1.10464709738e-17)
(55.7366471529 8.46886973568 8.39939703841e-18)
(58.1346745319 9.04177010649 9.21543539508e-18)
(57.9311888208 9.07963137384 -6.00743809038e-18)
(57.7327877134 9.11279974343 -1.22940701858e-17)
(57.539621594 9.1417352218 3.02680594488e-18)
(57.3517928789 9.16690112331 -1.40617078767e-19)
(57.1693753912 9.18877876985 -2.91488007269e-18)
(56.9924205294 9.20783985614 -5.62502370776e-18)
(56.8209483363 9.22451239639 5.45220503795e-18)
(56.6549514414 9.23920926176 -7.98354640681e-18)
(56.4943906358 9.25237258313 -5.36600228819e-18)
(56.3391953568 9.26445273382 1.54827426656e-17)
(56.189268532 9.27588931656 1.02306828135e-17)
(56.0444944813 9.2870848484 4.7747958715e-18)
(55.9046934842 9.298087498 -7.34325067975e-18)
(58.2457961141 10.2980513243 -7.8458231538e-18)
(58.0171159002 10.2970751246 7.60046194881e-18)
(57.7964672341 10.2909849115 -8.1264238246e-20)
(57.5839799663 10.280547608 -3.8030921628e-18)
(57.3797821397 10.2663861975 -3.15998209004e-20)
(57.1839753222 10.2490620852 -3.18777330824e-18)
(56.9966024795 10.2291130106 4.28856635582e-20)
(56.8176593543 10.2071011251 -5.38378656291e-20)
(56.6472227543 10.1836509975 0)
(56.4853591695 10.159382023 -6.69138743073e-20)
(56.3319281399 10.1348801027 2.84071848152e-18)
(56.1866787302 10.1107058398 6.0583635813e-21)
(56.0493250038 10.0873702286 7.74218041731e-18)
(55.919831574 10.0650843966 1.56484745352e-18)
(58.0124664306 11.624326354 2.61773987369e-20)
(57.7593799465 11.5719773255 -1.92013135172e-20)
(57.5201986865 11.5136530439 -4.38077612988e-18)
(57.2939800534 11.4501358518 7.54923806492e-21)
(57.0796017202 11.3824312316 4.17080698401e-18)
(56.8769088292 11.3116029763 -1.59380307624e-17)
(56.6863285184 11.2386348797 3.94282735725e-18)
(56.5082915042 11.1644233469 1.48436754637e-17)
(56.342747539 11.0898114676 -3.37316071516e-18)
(56.1892466345 11.0155720561 1.65878772073e-17)
(56.0473500681 10.9424382774 -2.4188838151e-19)
(55.9167790838 10.8711054908 -1.20818463218e-17)
(55.7970664556 10.8021848774 2.9940359628e-18)
(55.6885085015 10.7360401145 -1.15139547357e-17)
(57.4456626751 13.1636370264 2.93344188506e-17)
(57.1663374397 13.016681261 5.62792877191e-18)
(56.9032607522 12.8641038888 -5.11224371734e-18)
(56.6584940005 12.7072659934 1.54035420654e-17)
(56.4338611719 12.547518309 -1.79209875352e-20)
(56.2293108729 12.3862100871 4.37334095328e-18)
(56.0437364111 12.2246176647 4.60860955156e-18)
(55.8759832015 12.0638302014 -1.66272423524e-17)
(55.725222805 11.9049257858 -7.84437980186e-18)
(55.5908466012 11.7489791132 -1.23730569493e-21)
(55.4723104559 11.5970576151 3.22840049197e-18)
(55.3690639449 11.4502245462 -6.76037324686e-18)
(55.2802516039 11.309455625 -6.38240896793e-20)
(55.2064994992 11.175661434 1.5729217258e-17)
(56.0532945552 14.5476841186 -1.44099640116e-17)
(55.7569519749 14.283418285 -6.14510493687e-20)
(55.4902614124 14.0164540374 -6.63767710824e-18)
(55.2516207546 13.7487704548 -6.3029080571e-18)
(55.0394962976 13.4819689077 1.72557386215e-17)
(54.852931753 13.2174928757 -7.77192444926e-20)
(54.6912314107 12.9567406295 -1.08455683476e-17)
(54.553615594 12.7010779386 -4.95839087636e-18)
(54.4392540114 12.4517941524 9.01574988388e-18)
(54.347366603 12.2101249961 1.20925930164e-17)
(54.2771420224 11.9772186917 -3.57851827445e-18)
(54.2278582129 11.7540875783 -6.77300121222e-18)
(54.1983345631 11.5414007471 -1.55914461016e-17)
(54.1899896469 11.3401389099 5.66059482747e-18)
(54.0156737917 16.1403402935 2.28676817672e-19)
(53.7320786113 15.6886748302 1.17905547407e-19)
(53.4879547942 15.2403954948 3.96779633664e-19)
(53.2817982768 14.7970709121 7.79210437416e-19)
(53.1121075966 14.3602477169 -7.12800829488e-18)
(52.9772981076 13.9313804333 -6.54223313304e-18)
(52.8756606666 13.5118335615 5.90868394983e-18)
(52.8054256218 13.1028467435 4.50655847243e-19)
(52.7649412663 12.7055890309 -7.61602116664e-22)
(52.7525344774 12.3211284891 3.88093167025e-18)
(52.766274676 11.9504683713 4.02573499928e-18)
(52.8042397685 11.5946127317 -1.14088909101e-19)
(52.8639552685 11.2544394635 -3.18361283175e-18)
(52.9463792485 10.9320814444 8.4154030329e-19)
(50.5865669232 16.9488607883 -1.13309691255e-17)
(50.3639614829 16.2712243067 -3.00415734435e-17)
(50.1877499424 15.6066942239 3.57756349502e-17)
(50.055266588 14.9578796264 2.19909327929e-19)
(49.9639712281 14.3274599082 -4.4647457189e-17)
(49.9116003421 13.7182620246 1.3357835676e-17)
(49.8960007969 13.1326067117 2.4221252681e-17)
(49.9150136254 12.5724813835 -1.5081003164e-17)
(49.9662726983 12.0395734238 -1.39100571736e-17)
(50.0471511288 11.5355378583 7.32231149859e-18)
(50.1554669226 11.062662415 -7.21803935619e-20)
(50.2904389811 10.6210704136 -2.64914900802e-18)
(50.4501305432 10.2125633339 6.46685730789e-18)
(50.6418133638 9.83651965053 -7.20229438124e-18)
(45.9112941864 17.5629680471 1.1487913363e-17)
(45.8450552451 16.6287731372 1.09485276637e-18)
(45.8308635626 15.7280872964 -1.00881297038e-18)
(45.867905288 14.8601676947 1.55672484407e-17)
(45.955818322 14.0263413961 -7.69047344345e-18)
(46.0947507805 13.2228879068 1.16169620382e-18)
(46.2859804341 12.4562569416 4.91602362607e-18)
(46.5291714564 11.7330836296 -4.44158726724e-18)
(46.8222615647 11.0538356171 -3.14636411548e-18)
(47.1691940584 10.4114990924 3.26454852541e-19)
(47.5625476097 9.8019687142 1.44638519231e-18)
(48.0010979638 9.21706706996 2.531897171e-18)
(48.4703418173 8.64964320094 2.20300841384e-19)
(48.9463977098 8.09447161897 2.85653087775e-18)
(39.0033877736 15.391203474 4.17056005349e-17)
(39.3091899353 14.2679305681 -4.77135215554e-17)
(39.6582104227 13.1649183525 -1.72215951167e-17)
(40.0476839679 12.0789033487 1.83788909819e-17)
(40.4733637111 11.0071972329 9.76649084201e-18)
(40.9286862921 9.9523278113 8.57886430992e-18)
(41.4036215881 8.91834556343 -1.95071128419e-18)
(41.8956919609 7.90872077875 -5.41239810536e-18)
(42.3927248396 6.93814917673 -2.53877605821e-18)
(42.8888591299 6.01872712226 2.00067266995e-18)
(43.3624772014 5.16518787693 -6.8211507945e-19)
(43.7831056916 4.40300990353 -3.43901723056e-18)
(44.1697837766 3.75442598756 3.26435281123e-18)
(44.5719435235 3.23503229507 2.43185153822e-18)
(52.9902033278 0.355796880109 -4.0714315668e-18)
(52.8971844383 0.359455076318 -2.2471793676e-19)
(52.8009516771 0.363119230579 1.19590703389e-17)
(52.7013906828 0.366807914643 -3.27761094384e-18)
(52.5983614894 0.3705224531 -8.39497729862e-18)
(52.4917516451 0.374264577384 2.74867170671e-19)
(52.3814481654 0.378036200458 -2.01751132815e-19)
(52.2673251119 0.38183242385 3.94956589904e-18)
(52.1492484006 0.38564445553 0)
(52.0270796087 0.389467916514 4.04157553882e-21)
(51.900677598 0.393299200568 -2.05900214637e-21)
(51.7699000112 0.39713292796 -3.29123581948e-18)
(51.634600981 0.400963770853 -3.40893507282e-18)
(51.494630639 0.404786898337 7.95883086703e-18)
(51.3498368892 0.408601078969 3.70179945347e-18)
(51.2000654166 0.41240083153 -4.91944160059e-18)
(51.0451557984 0.416170708911 4.3457790884e-18)
(50.8849410338 0.419896938553 2.45063677189e-19)
(50.719253332 0.423567472806 -4.62140429821e-18)
(50.5479270614 0.42716728517 -7.86469498905e-18)
(50.3707965713 0.43068195887 -4.37985684761e-19)
(50.187697043 0.434100573197 8.34916055475e-18)
(49.9984680218 0.437407383544 2.49493162681e-18)
(49.8029508148 0.440572336739 1.3976609038e-19)
(49.6009844805 0.443559987521 -5.03206085112e-18)
(49.3924119415 0.446334624737 -2.4605187669e-18)
(49.1770916701 0.448856006357 -2.0348860534e-18)
(48.9549005667 0.451079231684 4.4611398721e-18)
(48.7257333346 0.452954654831 4.8195516558e-18)
(48.4895071239 0.454426121949 -6.48479643983e-18)
(48.2461692657 0.455429636676 -2.63191263314e-19)
(47.9957054316 0.455892189348 -1.60514734177e-18)
(47.7381484705 0.455730291105 -6.18804129735e-18)
(47.4735896784 0.454848288375 1.40009073776e-19)
(47.2021926029 0.453136258818 1.16359710843e-17)
(46.9242095638 0.45046785429 1.01925461324e-17)
(46.6400016804 0.446697751542 -9.30289857765e-18)
(46.3500629375 0.441658610092 -4.05971837199e-18)
(46.0550503333 0.435156960471 3.60496652711e-18)
(45.7558191479 0.426969199351 6.72304714599e-18)
(45.4534625322 0.416838121891 4.35053014236e-19)
(45.1493619072 0.40446519172 -1.37671449662e-17)
(44.8452529435 0.389506998077 -4.14075643997e-19)
(44.543297291 0.371556888874 1.0492024707e-17)
(44.2461730185 0.350142553662 1.35233251259e-19)
(43.9571808315 0.324723881319 -3.66160079638e-18)
(43.6803618361 0.294664966086 6.35873876801e-18)
(43.4206762226 0.259228539676 3.44664432166e-18)
(43.1841202457 0.217567158308 -1.32325419285e-17)
(42.9780591999 0.168770510994 2.81736989568e-18)
(42.8112362911 0.111899385917 7.57433851642e-18)
(42.6943242537 0.0459273683622 -7.65715639852e-18)
(42.6399025506 -0.0300375616705 3.10596531907e-18)
(42.6627783714 -0.116995536964 4.39754007743e-19)
(42.7803446009 -0.21590184424 -3.56552909573e-18)
(43.0128362667 -0.327834730662 -3.49346593808e-18)
(43.3834299291 -0.453749206877 -5.44907308044e-19)
(43.9180383708 -0.594375705239 1.04272678598e-17)
(44.6458333594 -0.750038297788 4.00612844476e-18)
(45.5963053234 -0.920121554576 -1.24181227971e-17)
(46.8025922978 -1.10260627759 -1.19507478395e-17)
(48.2960443142 -1.29376795447 7.07727865305e-18)
(50.090910661 -1.48923994521 1.23088819872e-17)
(52.2492379998 -1.67870939186 1.99279958149e-19)
(54.6897098598 -1.85143905203 -1.73522910114e-18)
(57.4263058174 -2.00226517368 -1.29664542006e-17)
(60.5345732299 -2.09902189612 2.5711919107e-18)
(63.8473457286 -2.14230267561 2.16342860527e-18)
(67.2574299767 -2.11431776201 2.7840091915e-18)
(70.6538995311 -2.00443791213 -3.13659448009e-19)
(73.8806039316 -1.81050999626 -1.28978514738e-17)
(76.7588048404 -1.53902088445 -4.13530804813e-19)
(79.1162531752 -1.20653576569 2.19491412316e-17)
(80.8073348884 -0.838287773962 4.57574222434e-18)
(81.739213237 -0.463552415807 -5.42674679103e-18)
(81.8753954536 -0.109761245456 2.25650900809e-19)
(81.2968800905 0.196780158771 -2.30859819526e-19)
(79.9914084121 0.443004026615 -1.71176266245e-18)
(78.590570462 0.607764338395 -4.33387661769e-19)
(75.3575652186 0.713552136903 0)
(53.0763256991 1.21129114825 -3.01022779587e-22)
(52.9823448137 1.22161574988 1.99108825199e-18)
(52.8850553527 1.23198850606 2.06046042866e-18)
(52.7844453988 1.24247362642 -2.01089856979e-18)
(52.6803803016 1.25307569941 -5.77201057813e-18)
(52.5727234665 1.26379761301 -1.9645476472e-19)
(52.461347962 1.27463459024 -6.75220074061e-18)
(52.3461247727 1.28557309808 -5.73301280515e-19)
(52.2269185975 1.29659692597 7.86277754759e-18)
(52.1035887563 1.30769371021 1.51779887318e-18)
(51.9759907819 1.3188517801 3.81498753501e-18)
(51.8439771716 1.33005764246 -1.80472185799e-18)
(51.7073964578 1.34129839617 -9.41551831311e-18)
(51.5660948936 1.35256638497 -6.56612112508e-18)
(51.419915652 1.3638559626 1.25572240338e-17)
(51.2686933697 1.37514363854 7.94759721383e-19)
(51.1122549271 1.38639183066 -6.27216061091e-18)
(50.9504247424 1.39756738095 1.15717036657e-17)
(50.7830260042 1.40863703728 3.46690026666e-18)
(50.6098803747 1.41956453482 -5.91198082736e-18)
(50.4308094808 1.43031872176 1.452654996e-18)
(50.245634455 1.44086731231 8.08452061387e-20)
(50.0541729662 1.45116217718 -1.58529385051e-18)
(49.8562407426 1.46113069348 -1.30931910454e-21)
(49.6516519933 1.47067858838 -2.4971610614e-18)
(49.4402233608 1.47970555707 4.63389308816e-18)
(49.2217826986 1.4881048422 -1.48897307977e-18)
(48.9961701492 1.49575501581 -7.54592546262e-18)
(48.7632389631 1.50251812629 4.42681005215e-18)
(48.522860557 1.50823513794 1.06072730257e-17)
(48.274930955 1.51272180594 3.92746584302e-19)
(48.019378338 1.51576433331 -1.07522728453e-17)
(47.7561718243 1.51711435198 -1.75579596832e-19)
(47.4853323811 1.51648330781 -3.56975791967e-18)
(47.2069460774 1.5135361081 -3.85173204347e-19)
(46.9211802219 1.50788401002 6.03496390632e-18)
(46.6283031118 1.49907605829 5.14090981373e-20)
(46.3287074735 1.48658877567 5.45218623705e-18)
(46.0229401155 1.46981228479 2.14753706622e-19)
(45.7117380582 1.4480376267 -9.11888315864e-18)
(45.3960671664 1.42044641539 -3.23874221461e-18)
(45.0771713471 1.38609021364 3.06397119201e-18)
(44.7566382349 1.34386837165 4.41017379444e-19)
(44.436474891 1.29250553928 1.09080296212e-17)
(44.1191903526 1.2305278428 1.07534996535e-18)
(43.8079108384 1.15623621628 -1.25600208421e-17)
(43.5065010246 1.06767265086 3.68627729062e-18)
(43.2197098221 0.962599077461 -5.9754181902e-18)
(42.9533821397 0.838428171073 1.17579060445e-19)
(42.7145848396 0.692279569705 1.64898418034e-17)
(42.5119905321 0.520822191477 -2.37934869017e-18)
(42.356045261 0.320590052397 -8.1631696653e-18)
(42.2595944725 0.087454485917 3.86477021659e-18)
(42.2379035345 -0.18261918736 -3.74614129618e-18)
(42.309448739 -0.49369680669 3.3685220055e-18)
(42.4957782098 -0.849506263172 6.74037435595e-18)
(42.8218642969 -1.25313905383 -1.01323955292e-17)
(43.3157749313 -1.70622522056 -7.60345009424e-18)
(44.0100289622 -2.20783890232 1.23524431982e-18)
(44.9380738449 -2.75484947147 4.268065161e-21)
(46.142140932 -3.34089301348 2.95482423754e-18)
(47.6578532954 -3.95203632069 -9.98587668937e-19)
(49.5134976881 -4.57471879375 2.34747798514e-18)
(51.7426669476 -5.18660577155 5.64549547468e-19)
(54.3486413155 -5.73362318138 1.29380544653e-19)
(57.3149364613 -6.17758794746 5.60890657471e-19)
(60.5976798553 -6.48653973953 3.49253702789e-18)
(64.1146383516 -6.60468391461 -3.35020005525e-18)
(67.7581376191 -6.47520116037 -1.93053452941e-17)
(71.3831828445 -6.06756752137 1.60967350504e-17)
(74.8077648991 -5.37632781026 1.00288871684e-17)
(77.8323792051 -4.42295492108 -2.54578340648e-17)
(80.2663751379 -3.26250521101 -4.76630802133e-19)
(81.9543692997 -1.98569890023 2.07858997997e-17)
(82.8066454924 -0.709062117959 -8.54204363138e-18)
(82.7953186436 0.451952256118 -5.37328624214e-18)
(82.0289085112 1.39908389413 -8.80606650554e-19)
(80.4909097132 2.07433834101 -1.9994337042e-18)
(78.9519642114 2.47192193114 -7.93939251734e-18)
(75.5405581776 2.61089862233 1.49442767127e-18)
(53.210024869 1.93926871358 2.46332745919e-18)
(53.1154227463 1.95657958661 1.75616899919e-18)
(53.0175610711 1.97399603569 4.23434461275e-18)
(52.9163355521 1.99162211989 5.40774950783e-18)
(52.8116141835 2.00946492707 -1.67729115117e-18)
(52.7032862399 2.02751676442 -9.78776985107e-18)
(52.5912299262 2.04576134294 -8.96091986422e-20)
(52.475311011 2.06418578345 1.81038471984e-18)
(52.3553894718 2.08277781161 1.70308729481e-18)
(52.2313229496 2.10152264771 2.26487946635e-19)
(52.1029658658 2.1204045049 -6.72979846094e-18)
(51.9701675135 2.1394075414 -3.49443171485e-18)
(51.832773969 2.15852003521 1.82659942696e-18)
(51.6906272511 2.17773041207 3.47835407719e-19)
(51.5435585934 2.19701230923 3.20805466808e-18)
(51.391388498 2.21632608841 -1.3446310278e-18)
(51.2339334345 2.23563155061 -2.79595521967e-19)
(51.0710070035 2.2548872986 1.7716245085e-18)
(50.9024181876 2.27404857727 3.98427673525e-18)
(50.7279732933 2.29307266825 3.22013646232e-18)
(50.5474746791 2.31191226892 -4.33519989663e-18)
(50.3607146545 2.33049906301 3.90998082588e-20)
(50.1674798377 2.34875022397 2.41700470035e-18)
(49.9675525466 2.36656647324 7.66652576919e-20)
(49.7607064543 2.38381771386 -7.07886791454e-18)
(49.5467155739 2.4003585436 -3.34219903729e-19)
(49.3253600093 2.41603162522 9.46366136246e-18)
(49.0964235701 2.43065497456 1.10061083733e-17)
(48.8596955042 2.44401798711 -4.38850807797e-18)
(48.6149750202 2.45587552661 -9.36234481317e-18)
(48.3620762249 2.46594167114 -1.80503809553e-18)
(48.1008343983 2.47388280238 -2.28824612981e-18)
(47.8311134979 2.47930974764 2.16864321402e-18)
(47.5528154524 2.48176875105 1.18369977665e-19)
(47.2658918353 2.48073089104 1.80827695617e-18)
(46.9703581132 2.47557960851 1.02256992594e-19)
(46.6663111733 2.46559604458 -3.52628754864e-18)
(46.353951563 2.44994212318 4.99733814257e-18)
(46.0336108636 2.42763887339 7.56767051326e-18)
(45.7057845851 2.39754574709 -1.49665173e-17)
(45.3711681464 2.35834133702 3.37377019011e-19)
(45.0307037668 2.30848973509 1.2634633825e-18)
(44.6856462499 2.24620044198 -7.36229406926e-18)
(44.3376376141 2.16938959114 9.94983857111e-18)
(43.9887926714 2.07563474754 6.53355297303e-18)
(43.6418115191 1.96212399048 -1.97744516344e-18)
(43.3001215854 1.82560200452 -9.68982903177e-18)
(42.9680400161 1.66231185009 -8.79974544684e-18)
(42.6509574937 1.4679404534 7.89142048388e-18)
(42.3556342777 1.23755968198 1.28594888473e-17)
(42.0904966398 0.965598579616 -6.32788640992e-18)
(41.86595813 0.645770045902 -2.16626626686e-19)
(41.6948375335 0.271140781241 3.49374596423e-18)
(41.5927602367 -0.165803708423 -2.92909437834e-18)
(41.5785884796 -0.6727321025 -5.5052787842e-19)
(41.6749594261 -1.25696503956 5.27086094442e-19)
(41.9094203273 -1.92475157729 -6.93590778839e-18)
(42.3159353892 -2.68153028427 2.74192195736e-18)
(42.9387404279 -3.53169052735 3.70676013109e-18)
(43.8274067659 -4.47623617069 -6.39029584435e-19)
(45.0318742615 -5.51221438946 3.6212548152e-18)
(46.5923220986 -6.61752060859 -1.53090573587e-18)
(48.5357890929 -7.74689998167 -1.85722257165e-18)
(50.8739349479 -8.84281326117 -3.24309804261e-19)
(53.6110806945 -9.83753417599 -3.28603393883e-19)
(56.7491875656 -10.6557255481 2.70010144967e-20)
(60.2725678093 -11.2162915549 1.9940455838e-18)
(64.1235895165 -11.4305904795 -9.51613341935e-19)
(68.1873802896 -11.2142767476 -1.78020007432e-17)
(72.2849323475 -10.5063478823 -1.67496826616e-17)
(76.1775467156 -9.28937033304 2.96051214655e-17)
(79.5912272512 -7.60772022634 2.5290699832e-17)
(82.2628424322 -5.57474673754 -1.015800594e-17)
(83.9956125824 -3.36134751079 5.8504747482e-18)
(84.7087557273 -1.16761788884 1.91830178062e-18)
(84.415886733 0.81676469595 -2.93688051794e-18)
(83.2865091596 2.43180640763 -3.20904869297e-18)
(81.3471719096 3.57279007556 -2.26262038752e-18)
(79.5169159574 4.21614382104 2.11091577704e-18)
(75.7696287556 4.39480621006 -7.63558179836e-19)
(53.4159825699 2.76249900359 -2.97796910386e-18)
(53.3194173985 2.78572501783 2.2344847616e-18)
(53.2194844759 2.8090835649 1.98127174112e-18)
(53.1162108021 2.83272463796 -1.9537480366e-18)
(53.009472725 2.8566501877 -4.07921153739e-18)
(52.8991302728 2.88084715344 1.01243075149e-19)
(52.7850489918 2.90530229438 -1.63792969152e-18)
(52.6670975199 2.93000574466 7.06794908172e-18)
(52.545138189 2.95494640074 4.12309641155e-19)
(52.4190267973 2.98011296292 -5.76378836817e-18)
(52.2886136416 3.00549434092 -2.63469629126e-18)
(52.1537448606 3.03108267304 -2.03409811203e-18)
(52.0142619096 3.05687134037 8.19724594929e-18)
(51.8699933974 3.0828383577 1.82179960115e-18)
(51.7207539601 3.1089465616 4.32783163469e-18)
(51.56635224 3.13515889994 2.83097488818e-19)
(51.4065924507 3.16143814578 -9.21327092631e-18)
(51.2412717214 3.18774404408 -2.25895563729e-19)
(51.0701817088 3.21403930777 8.4760631987e-18)
(50.8931066806 3.24028265714 3.93191419748e-19)
(50.7098143961 3.26640833502 -8.05146041709e-18)
(50.5200603316 3.2923349988 2.21961350112e-18)
(50.3235945455 3.31796972826 7.49692584115e-18)
(50.1201514253 3.34318622194 -4.464037864e-18)
(49.9094504952 3.36783416866 -5.8043816214e-19)
(49.6912082514 3.39174957097 -2.03302620947e-18)
(49.4651373405 3.41474404676 -5.11644397761e-18)
(49.23094307 3.43659757367 1.32667307033e-17)
(48.9883257888 3.45705190394 6.76319942022e-19)
(48.7369839247 3.47580329532 -6.67629980014e-18)
(48.4766169046 3.492494319 7.09313939691e-21)
(48.2069294801 3.50670447771 -6.04376235859e-18)
(47.9276372386 3.51793940447 -5.67654774349e-18)
(47.638473569 3.52561829522 -3.491302252e-20)
(47.3391986219 3.52905912782 5.5606451269e-18)
(47.0296107299 3.52746122506 -2.71493673528e-18)
(46.7095605282 3.51988496778 -2.07821242049e-18)
(46.3789686298 3.50522829431 -2.51912235008e-18)
(46.0378484277 3.48219562939 4.58104827117e-18)
(45.6863352837 3.44926722708 1.05288977076e-17)
(45.3247172787 3.40467099964 -4.53974260011e-18)
(44.9534762094 3.34633352102 3.29005685383e-19)
(44.573347781 3.27181882931 3.66504507061e-18)
(44.1853903984 3.17826688396 -4.30083238038e-20)
(43.7910701067 3.06232271243 1.01296975144e-18)
(43.3923693528 2.92005668887 7.73800318258e-19)
(42.9919195473 2.74687241378 -6.06267762045e-18)
(42.5931872592 2.5374070111 7.36833773684e-18)
(42.2007229666 2.2853962812 -6.54736600709e-18)
(41.8204680316 1.98353412971 -8.39469938452e-18)
(41.4600531916 1.62334320634 6.69529313918e-18)
(41.1291922919 1.19517045384 7.17205719666e-19)
(40.8398703606 0.688390115256 -4.08885309335e-19)
(40.6071445377 0.091646759938 3.9845593935e-19)
(40.450482157 -0.606703190071 3.39354201319e-18)
(40.396713223 -1.42042371971 1.65433596797e-18)
(40.484302541 -2.3675743156 -4.2826039941e-18)
(40.7601919991 -3.46839550098 -2.70366075536e-18)
(41.273839119 -4.73961192408 -1.13494053448e-18)
(42.0599038069 -6.17559532998 -6.38493899196e-18)
(43.1285613496 -7.73439298313 8.45470981688e-18)
(44.4826909911 -9.35006670278 3.88162439993e-18)
(46.1488118843 -10.9578251357 -6.81310503632e-18)
(48.1976552197 -12.5085556313 6.28100257237e-18)
(50.7259377331 -13.9571175999 8.93465574666e-19)
(53.8205020049 -15.2298525125 3.8481245617e-18)
(57.5184777067 -16.2075905578 3.26303160432e-18)
(61.7811087584 -16.7281928264 -1.60159352008e-17)
(66.4826567877 -16.612716029 -1.34382923194e-17)
(71.4063823547 -15.7098457857 2.30625530174e-17)
(76.2443816537 -13.9458355443 4.39346328994e-17)
(80.6132725137 -11.3688621808 -2.57038011158e-17)
(84.1040800387 -8.17728622157 5.51009347333e-19)
(86.3707923429 -4.70026359449 -2.11277866709e-18)
(87.2450401821 -1.3076366122 -1.59370484411e-18)
(86.7553247622 1.69197476549 -6.35069065313e-18)
(85.1646217331 4.05517846607 8.57037957907e-18)
(82.6186228659 5.61767146966 -6.02590625203e-18)
(80.2505828636 6.41540734533 -3.06654160266e-18)
(75.8598917031 6.47658416258 1.12623212926e-18)
(53.66535532 3.52253132702 3.52568426517e-18)
(53.5673185243 3.55163802926 3.95274929868e-18)
(53.4659591926 3.58094985958 1.82643631604e-19)
(53.3612501476 3.61064707081 -4.23764679397e-18)
(53.2530717181 3.64073135408 -1.61219236052e-20)
(53.1413083517 3.67119801194 1.84937841636e-18)