/*--------------------------------*- C++ -*----------------------------------*\
  =========                 |
  \\      /  F ield         | OpenFOAM: The Open Source CFD Toolbox
   \\    /   O peration     | Website:  https://openfoam.org
    \\  /    A nd           | Version:  7
     \\/     M anipulation  |
\*---------------------------------------------------------------------------*/
FoamFile
{
    version     2.0;
    format      ascii;
    class       surfaceVectorField;
    location    "1";
    object      Uf;
}
// * * * * * * * * * * * * * * * * * * * * * * * * * * * * * * * * * * * * * //

dimensions      [0 1 -1 0 0 0 0];

internalField   nonuniform List<vector> 
14892
(
(54.7723671088 0.270719073337 1.29731073485e-18)
(54.8737405023 0.623134370737 5.9490519189e-19)
(54.6696988198 0.277179299481 -6.65351551619e-19)
(54.771283713 0.634906180972 3.21220723631e-18)
(54.5653176874 0.283513225526 -6.61136782574e-19)
(54.6671125376 0.646703100488 -3.31172199909e-18)
(54.459224208 0.289723383411 1.32377176445e-18)
(54.5612693085 0.658519999964 -6.44619047614e-19)
(54.3514808784 0.295814537916 1.32037248309e-18)
(54.4537912234 0.669970244528 4.04536916312e-18)
(54.2421240713 0.301790569857 -3.50064293857e-18)
(54.3447057079 0.681212628232 -2.08315213251e-18)
(54.1311881095 0.307654414253 -3.50535368203e-18)
(54.2340422892 0.69225731724 -3.46924389931e-18)
(54.0187071803 0.313410545418 2.25791422445e-18)
(54.1218341938 0.70311190044 1.40349508317e-18)
(53.9047162837 0.319064098444 1.51651034059e-18)
(54.0081160748 0.713789047134 2.24698183341e-18)
(53.7892467897 0.324616064353 7.07266147951e-19)
(53.8929198699 0.724294836566 -1.48296635201e-18)
(53.6723250888 0.33006564387 2.98723032386e-18)
(53.7762728618 0.734624610909 6.81278174782e-19)
(53.5539781406 0.33541394313 -1.06461653606e-20)
(53.6581978051 0.744776165193 -2.99646368202e-18)
(53.434233956 0.340653624848 -2.3296471395e-18)
(53.5387290908 0.754750510088 -7.55273510031e-19)
(53.4178020117 0.76447686698 2.54517915186e-18)
(53.3130452802 0.345804719649 -3.1088762512e-18)
(54.8720772342 0.975327728324 2.50045748774e-18)
(55.0034179755 1.24750139837 6.01889699537e-19)
(54.7681103452 0.992616211773 5.59701133615e-19)
(54.899397726 1.27096994006 5.71429396725e-19)
(54.6624931447 1.00963175134 -3.27796303733e-18)
(54.7936775558 1.29391704029 -5.46134932949e-19)
(54.5552720021 1.02637500812 2.07006541359e-18)
(54.6863096637 1.31662131029 -2.35011924769e-20)
(54.4464505045 1.04284847368 6.4869511978e-19)
(54.5773400837 1.33895602457 2.69389766036e-18)
(54.336057548 1.05905505973 -2.06163543644e-18)
(54.4667981521 1.36092351689 -4.84677204205e-18)
(54.2241235666 1.07500063301 1.40285927598e-18)
(54.3547136527 1.38253304984 -2.86263843885e-18)
(54.110681062 1.09069489707 1.39854768255e-18)
(54.2411204543 1.40379597299 2.08086833113e-18)
(53.9957609753 1.10614271148 -7.3503144969e-19)
(54.1260518031 1.42471883844 -1.55183653864e-18)
(53.8793891621 1.12133894897 -1.49352005234e-18)
(54.0095357533 1.44529853576 -1.49913694332e-18)
(53.7615904934 1.13627793619 -5.24060916098e-18)
(53.8915992317 1.46553094431 8.12970677251e-19)
(53.6423917764 1.15095935761 -3.71449105755e-18)
(53.7722663709 1.48541717987 -5.91460353448e-19)
(53.521819698 1.16534449033 4.06976852039e-18)
(53.651575765 1.50495682422 1.52702576343e-18)
(53.5294345678 1.52410257361 9.19898485141e-19)
(53.3997969621 1.17950621056 5.5627131742e-18)
(55.0292597105 1.54489022941 -1.29474805819e-18)
(55.2066634208 1.87629375465 1.96711425789e-18)
(54.9234780001 1.57393186864 -5.25072521364e-19)
(55.0998753222 1.91084500271 -1.17485384517e-18)
(54.8160125243 1.60251178203 2.65691661997e-18)
(54.9914433444 1.94479967833 2.02968244239e-18)
(54.7069227001 1.63063121211 6.12359337509e-19)
(54.8814067193 1.97817615932 5.82995148398e-19)
(54.5962453313 1.65829105331 -2.76917010041e-18)
(54.7698063673 2.01098112717 1.42393436581e-18)
(54.4840185176 1.68549749827 -5.61710708091e-18)
(54.6566865612 2.04322230441 -4.82794000636e-18)
(54.3702828392 1.71226208565 -2.15458604622e-18)
(54.5420928874 2.07491536719 -4.98757576265e-18)
(54.2550745476 1.73859319413 -8.48252426588e-19)
(54.4260634552 2.10607366752 2.16767255354e-18)
(54.1384221139 1.76449104561 -2.30192836699e-18)
(54.3086271678 2.13669918673 -1.15700406229e-19)
(54.0203523327 1.78995448794 7.86010671372e-19)
(54.1898110615 2.16679230485 -1.58075485481e-18)
(53.9008939642 1.814986621 5.36616253998e-18)
(54.0696459652 2.19635884734 1.56463569197e-18)
(53.7800758188 1.83959022413 4.57391671766e-18)
(53.948158358 2.22540705146 4.56226958371e-18)
(53.6579238071 1.86372638466 -1.57055210645e-18)
(53.8253934401 2.2539429122 7.69974625677e-19)
(53.7012388996 2.281844587 -3.90739354877e-18)
(53.5343507125 1.88749148529 -7.05457100307e-19)
(55.2756185244 2.23128953853 2.0625595395e-18)
(55.4811072801 2.52258594681 6.5517946896e-19)
(55.1661989208 2.27065335659 1.36445667369e-18)
(55.3701888756 2.56745061401 3.44636555996e-18)
(55.0552002154 2.30931414662 -2.37207743583e-20)
(55.2577243297 2.61148422237 -6.5757910706e-19)
(54.9426662447 2.34728331534 1.38833075591e-18)
(55.1437590002 2.65470108328 -6.78283953795e-19)
(54.8286417518 2.38457563742 -6.49184876046e-19)
(55.0283410028 2.69711824824 6.84525434307e-19)
(54.713173236 2.42121092698 -4.20909234924e-18)
(54.9115230637 2.73876036829 -2.02450082718e-18)
(54.5963015494 2.45720432428 -6.78485838258e-19)
(54.793350574 2.77964865061 -2.9679652099e-18)
(54.4780574375 2.49256031615 2.87207934452e-18)
(54.6738570356 2.81979074487 2.22540181273e-18)
(54.3584694893 2.5272814278 5.83215035083e-19)
(54.5530733708 2.85919164218 4.49939647315e-18)
(54.2375692572 2.56137565711 -7.90736013423e-19)
(54.4310332656 2.89786361168 -7.94990599524e-19)
(54.1153885506 2.59485421613 7.96076889954e-19)
(54.3077719169 2.9358228679 -7.35847533631e-21)
(53.9919574605 2.6277298763 7.89450101349e-19)
(54.1833166848 2.97308716555 -5.13691346151e-20)
(53.867303942 2.65993938158 -1.56395199871e-18)
(54.0577207408 3.00967487118 -2.43124072301e-18)
(53.9308295026 3.04548414944 1.67952234982e-18)
(53.7412911539 2.69165348526 -2.98605493009e-18)
(55.5734905734 2.85946248183 2.03812008975e-18)
(55.8174505335 3.19333177352 -1.44015874799e-18)
(55.4595586364 2.90886286837 1.42496146299e-18)
(55.700928189 3.24766312153 -1.63994313684e-18)
(55.3441531824 2.95732204488 -1.30363006107e-18)
(55.5829985241 3.30086971628 -1.45484608275e-18)
(55.2273295224 3.00486214484 -1.36412352775e-18)
(55.4637294051 3.35298092223 4.85691888522e-18)
(55.1091452574 3.0515097589 -6.89785585506e-19)
(55.3431849409 3.40403396166 1.63269387682e-18)
(54.9896501834 3.09728754128 -8.05767405543e-19)
(55.2214216094 3.45406173893 6.55571105626e-19)
(54.868880733 3.14220775314 -6.94615133662e-20)
(55.0984806766 3.50308133735 -1.42591059178e-19)
(54.7468707286 3.18628068028 3.84545861145e-18)
(54.9743997229 3.55110738909 -5.73747066448e-20)
(54.6236574736 3.2295229375 3.10573130981e-18)
(54.8492201904 3.59816403357 1.47061750595e-18)
(54.4992778521 3.27195566467 -1.69472094243e-20)
(54.7229827249 3.64428096422 5.91325901169e-20)
(54.3737661662 3.31360275894 -8.43413471449e-19)
(54.595727023 3.68949007804 8.24478463556e-19)
(54.247156704 3.35449003623 -3.2435862962e-18)
(54.4674847896 3.73382939301 -4.96575111678e-18)
(54.1194813991 3.39456617407 7.9335436913e-19)
(54.3383226158 3.77733980172 -7.29572727445e-19)
(54.2080534791 3.81985945219 5.41437771117e-18)
(53.9905638687 3.43401921566 2.77470845168e-18)
(55.9429499275 3.5736250706 -5.07744132942e-18)
(56.2095308274 3.90199297315 1.04531167337e-18)
(55.8224652313 3.63169386629 -4.48593029095e-18)
(56.085495224 3.9644486848 2.76233687917e-18)
(55.7007082379 3.68849085639 4.6694458716e-18)
(55.9602965527 4.02542370893 -2.50706830961e-18)
(55.5777517987 3.74405828763 7.80173410973e-18)
(55.8340224328 4.08497148384 2.92817517935e-18)
(55.453660113 3.79843328068 2.95736855329e-18)
(55.7067457852 4.14314057882 6.5139658589e-18)
(55.328479851 3.85164103631 1.30677607115e-18)
(55.578521008 4.19996455545 4.81881050045e-18)
(55.2022532373 3.90370410056 -1.3015324488e-19)
(55.4493957074 4.25547320936 -4.386131302e-18)
(55.0750268702 3.95465304511 -2.39628534946e-18)
(55.3194228364 4.30970763788 -5.07390427577e-18)
(54.9468467489 4.00452509898 -1.54854355641e-18)
(55.1886550038 4.36271708306 2.22503888365e-19)
(54.8177549987 4.05336127044 8.94896928274e-19)
(55.0571390281 4.41455393909 -5.6743183321e-20)
(54.6877932879 4.1012087817 -3.2820695992e-18)
(54.9249232973 4.46527694618 4.33152798544e-18)
(54.5570045143 4.14811945389 -2.45745528468e-18)
(54.79204771 4.51495380169 -2.34246111928e-18)
(54.4254172183 4.19401956746 3.86978497319e-18)
(54.6585800796 4.56364046079 -1.0743525625e-18)
(54.524274721 4.61116058726 1.89934287541e-18)
(54.2927834218 4.23916153587 3.25751599367e-19)
(56.3498554636 4.29219537482 8.81634881936e-18)
(56.6418413355 4.65912821101 1.39368935592e-18)
(56.2211594841 4.35746109944 4.69736890337e-18)
(56.5080834497 4.72785484528 5.45799720166e-18)
(56.0914957811 4.42109285437 -4.20663245506e-18)
(56.3735510889 4.79466180288 -1.62959402094e-18)
(55.960946417 4.48314413169 1.66935278652e-18)
(56.2383363136 4.85961339094 -2.53454295661e-18)
(55.8295778924 4.54366066715 8.34942694203e-18)
(56.1025169405 4.92276902872 5.07429401796e-18)
(55.6974464769 4.60268668174 -8.60804709524e-19)
(55.9661631548 4.98418744667 4.2351793093e-18)
(55.564612603 4.6602741285 -9.28446540161e-18)
(55.8293437779 5.04393712189 -4.04032554732e-18)
(55.4311351017 4.71648316004 -2.45597474259e-18)
(55.6921266715 5.10209642863 -4.30499388744e-18)
(55.297067142 4.77137849518 1.69853693194e-18)
(55.5545735299 5.15874736687 5.62487090615e-18)
(55.1624599947 4.82503170204 3.36652874671e-18)
(55.4167416623 5.21397932739 -1.17309475768e-19)
(55.0273651912 4.87752066003 5.23095519907e-18)
(55.2786907993 5.26789209446 -2.18828663276e-19)
(54.891821755 4.92891237091 -9.66956383005e-19)
(55.1404569894 5.32057776319 5.47457799773e-18)
(54.7558429068 4.97913365592 -3.01262382201e-18)
(55.0020981878 5.3720994745 -3.67508300459e-18)
(54.8633463235 5.42224700271 -3.94728356021e-18)
(54.6191337125 5.02847288816 -1.99573555772e-18)
(56.7983507462 5.08865890476 -1.92131400427e-18)
(57.1013097291 5.4807738231 -2.03628195912e-18)
(56.6588137633 5.15890191375 -8.43659608549e-19)
(56.9550123333 5.55295035629 -1.00017380149e-18)
(56.5187777876 5.22700082641 2.54520253934e-20)
(56.8085014312 5.62262542844 6.49163102783e-20)
(56.3783345856 5.29302789168 8.71611444635e-19)
(56.6618833771 5.68988859467 9.02005692819e-19)
(56.2375706366 5.35706057905 9.90744307981e-19)
(56.5152615573 5.75484193339 -1.32196613592e-19)
(56.0965670169 5.41918492772 1.05010094607e-18)
(56.3687345173 5.81759845193 -9.40136576054e-19)
(55.9554016541 5.47949499896 8.97131273116e-19)
(56.2223926706 5.87827896856 2.98337056025e-18)
(55.8141450758 5.53809106024 3.74727525817e-18)
(56.0763190245 5.93701018324 -5.14932885924e-18)
(55.6728626511 5.59508059057 3.80173524085e-18)
(55.9305889014 5.99392551257 2.84526511845e-18)
(55.5316174588 5.65057746921 -3.6738041186e-18)
(55.7852701928 6.04916637072 3.14722114233e-18)
(55.390458335 5.70468794488 4.46374405958e-20)
(55.6404198731 6.10286743755 -1.6888590307e-18)
(55.2494096589 5.75749764721 2.75390132222e-18)
(55.496058914 6.15513935759 6.68363782284e-18)
(55.1084803029 5.80893296535 -4.60297214521e-18)
(55.3522407875 6.20607956566 -3.93735525114e-18)
(55.2086870671 6.25549710957 -4.32266242015e-18)
(54.9673330701 5.85937334155 -3.09472820191e-18)
(57.2561673154 5.94397045745 -1.11821860662e-18)
(57.5603589269 6.38259008152 -9.89886095505e-19)
(57.1029640879 6.01544775547 -9.46046875942e-20)
(57.3981016403 6.45418425591 -6.86669542445e-20)
(56.9499335593 6.08415882162 9.37855820752e-19)
(57.2364829828 6.52252883815 3.44631442804e-18)
(56.7971982528 6.15023130131 -9.82794336157e-20)
(57.0756527401 6.5877862258 8.54163114015e-19)
(56.6448742511 6.21380306854 -2.05241161008e-18)
(56.9157462409 6.65012981801 -5.71812827061e-18)
(56.4930668624 6.2750208224 9.92222841937e-19)
(56.7568834953 6.70974078795 -1.0351304394e-18)
(56.3418748605 6.33404042332 -3.04741425236e-18)
(56.5991762726 6.76681468761 4.33518994982e-18)
(56.1913850319 6.39102279342 -6.02079685349e-18)
(56.4427272679 6.82155634902 -5.06966737497e-18)
(56.0416679515 6.44612700042 2.19604706871e-18)
(56.2876145275 6.87415769566 -3.36554843142e-18)
(55.892783477 6.49950485981 5.10447508461e-18)
(56.1338922004 6.92479930102 6.50463475387e-18)
(55.7447689064 6.55129662117 4.93175163612e-18)
(55.9816041344 6.97365663808 6.3581689049e-18)
(55.5976445649 6.60163198628 4.57686583896e-21)
(55.8307690081 7.02089934429 1.92637466142e-18)
(55.4514233782 6.65048210458 -3.65994696436e-18)
(55.681437194 7.06669711927 -7.4007374365e-18)
(55.5333579784 7.11087327789 -5.50280386761e-18)
(55.3057442139 6.69830149592 3.2499750237e-19)
(57.7013069476 6.88630758481 5.60949373911e-20)
(57.9916953403 7.38560789694 -3.87228308021e-18)
(57.5306923342 6.9548066096 3.46130831031e-18)
(57.8093306902 7.45034329448 2.76961359377e-18)
(57.3613315805 7.0197451008 3.35669077324e-18)
(57.6288801982 7.5109290326 8.82632151321e-18)
(57.1933828573 7.0813314981 -4.75102497701e-18)
(57.4505344394 7.56763497572 1.45086525242e-18)
(57.0269863435 7.13978244397 -4.69503585103e-18)
(57.2744553264 7.62073526197 -8.64661671637e-18)
(56.8622694987 7.19532936342 2.30276902834e-18)
(57.1007881317 7.67051941407 -1.49368715088e-18)
(56.6993501272 7.24821251697 2.30167993065e-18)
(56.9296660615 7.71729299122 4.92920085253e-18)
(56.5383155485 7.29865844559 -2.42454484091e-18)
(56.7611933312 7.76134257534 -2.66574566407e-18)
(56.3792213376 7.34687565201 9.43117231211e-19)
(56.5954347724 7.80291726333 -2.50609499323e-18)
(56.2221129435 7.3930709294 7.7512617232e-18)
(56.4324339171 7.84226386557 8.41108950976e-18)
(56.0670224132 7.43745613049 3.35794060851e-18)
(56.2722297466 7.87964634276 3.24987353981e-18)
(55.9139679561 7.48024141726 -5.46210820916e-18)
(56.1148392145 7.9153344971 -4.64906392626e-18)
(55.762951254 7.52145525731 -9.2306395279e-18)
(55.9602883725 7.94958876343 -8.12462480128e-18)
(55.8083709963 7.98228540944 -4.04095905043e-18)
(55.6135966929 7.56165477327 -4.21722877521e-18)
(58.098551171 7.94954549163 -1.15839928031e-18)
(58.3390196042 8.50928426447 -2.22175282613e-18)
(57.9064452707 8.00616045135 8.12296936672e-18)
(58.1317482967 8.55860035606 1.09537313456e-17)
(57.7171013993 8.05832854427 6.91562482943e-18)
(57.9283544371 8.60273105517 3.63226981751e-18)
(57.5307089192 8.10638606446 -2.44620141218e-18)
(57.7290559457 8.64208895214 -1.65298825901e-18)
(57.347436028 8.15068063921 -5.44607389185e-18)
(57.5340302743 8.67709294824 -3.83871026986e-18)
(57.167433308 8.19156850956 1.13304631712e-18)
(57.3434261167 8.70817582395 -1.41320205166e-18)
(56.9908202312 8.22938536933 -3.13740325984e-20)
(57.1573580682 8.73574538465 2.70935562529e-18)
(56.817674805 8.26443360252 -2.74667600439e-18)
(56.975901509 8.76016221049 3.75613316851e-19)
(56.6480517114 8.29701134863 4.95086472549e-18)
(56.7991065846 8.78178504308 -1.99299989649e-19)
(56.4819947789 8.32743336516 3.91855041559e-18)
(56.6270070349 8.80099903861 3.48538426761e-18)
(56.3195291148 8.3560213834 -4.73950343334e-18)
(56.4596169565 8.81820248156 -5.45893750221e-18)
(56.1606568049 8.38308687896 -7.30707434447e-18)
(56.2969218187 8.83379155665 -7.33103845572e-19)
(56.0053552547 8.40874743392 -2.94944169317e-18)
(56.1388806029 8.84815590051 4.55319923705e-19)
(55.9854123098 8.86124514933 2.86330805209e-18)
(55.853280574 8.43365167805 -8.27786392887e-19)
(58.3726014219 9.10826679209 9.86811077303e-18)
(58.5501189816 9.7801656318 3.63527426743e-18)
(58.1540839004 9.14528867061 6.46652772795e-18)
(58.3128572791 9.8003102095 8.19966700555e-18)
(57.9407739223 9.17680690501 -4.9167229861e-18)
(58.082267279 9.81415055543 -3.75094640438e-18)
(57.7328728253 9.20331539489 -3.04267006629e-18)
(57.8585517478 9.82236110749 -1.10202540149e-18)
(57.5305383651 9.22531173402 1.86000894264e-19)
(57.6418730081 9.82562773277 7.62878098738e-18)
(57.3338826235 9.24326985187 1.63026974273e-19)
(57.4323620763 9.82457003878 -1.98940413783e-19)
(57.1429769104 9.25762729341 3.11312742943e-18)
(57.2301158428 9.81968903451 -5.2683884725e-18)
(56.9578687588 9.26881819398 2.91619544512e-18)
(57.0351936341 9.81145807011 -2.23144603943e-18)
(56.7785897369 9.27729909819 -1.6585423708e-18)
(56.8476293422 9.80039625839 1.6627346532e-18)
(56.6051447541 9.283540025 -5.87809962042e-18)
(56.6674371373 9.78706479925 1.81081949446e-18)
(56.4375059023 9.28801935365 -1.4572997428e-18)
(56.4946434727 9.77203968828 -5.95505854958e-18)
(56.2756113325 9.29120882842 7.01290172071e-18)
(56.329233172 9.75591257249 2.83542578718e-18)
(56.1193752702 9.29337405296 6.25576693051e-18)
(56.171044441 9.73920914256 5.69089263586e-18)
(56.0200906071 9.72196190385 -8.69777539163e-18)
(55.9684979632 9.29524788214 2.74657381562e-18)
(58.489713158 10.4748833824 1.97080521023e-18)
(58.5056098225 11.2103669129 4.80383582562e-18)
(58.2404794908 10.4715593868 -2.00763087714e-18)
(58.2337267968 11.1837226896 -5.84389391537e-20)
(57.9995585152 10.4619303783 5.88927018575e-20)
(57.9731650705 11.1501586864 -2.18642473757e-18)
(57.7671167472 10.4468321983 9.55847992854e-18)
(57.7240456822 11.1105028479 -1.63977378534e-19)
(57.5433029543 10.4269938826 7.24252743456e-18)
(57.4861249605 11.0654450111 3.21972452477e-18)
(57.3282468417 10.4029941123 -5.62508821215e-18)
(57.258935232 11.0155479719 -4.71423324882e-18)
(57.1220333809 10.375370785 -1.06062008187e-17)
(57.0423288671 10.9615035396 -3.34876640592e-18)
(56.9246872855 10.3447124302 -3.48304318082e-18)
(56.8364348238 10.9041754268 -3.12167337749e-18)
(56.7362634832 10.3116668962 5.12834874461e-18)
(56.6415244482 10.8439546744 1.75137316472e-18)
(56.556724977 10.2769079014 1.73318041859e-18)
(56.4576724468 10.781910838 5.32778492226e-18)
(56.3862294519 10.2410829987 -1.66522715495e-18)
(56.2848570266 10.7174941792 -1.66118260727e-18)
(56.2245925334 10.2047716573 1.51446107737e-18)
(56.1226132441 10.6531798911 -1.5551214501e-19)
(56.0716127067 10.1683237231 -9.24453898887e-18)
(55.970568504 10.5895910656 1.51610584297e-18)
(55.8289816492 10.527661032 -9.55990472523e-18)
(55.9269788815 10.1324709631 -5.9629852332e-18)
(58.2517365385 11.9019639431 2.77391676066e-18)
(58.1105886524 12.8196977315 1.87035454281e-17)
(57.9685271979 11.8456746315 -2.38887273445e-19)
(57.8045398479 12.7129155897 -7.93824253864e-20)
(57.6997904797 11.7822742381 -2.41005885662e-18)
(57.514331542 12.5982855363 -8.98058766723e-18)
(57.4453306695 11.7124877786 -6.50420371526e-18)
(57.2395156384 12.4789004873 -8.08105245013e-18)
(57.2039264347 11.6371266338 -8.73478757139e-18)
(56.9797418253 12.3612031451 -1.64616354012e-18)
(56.9749780666 11.5571846064 -2.43578722229e-18)
(56.7360061054 12.2425112789 9.00783907615e-18)
(56.7586060989 11.4737548862 4.13972270437e-18)
(56.5090439558 12.119556797 -3.56072357407e-19)
(56.5549401436 11.3878975773 2.11172971731e-18)
(56.298641153 11.9930771806 -9.89442271849e-18)
(56.3644798225 11.3005821012 1.94881072302e-18)
(56.1047483653 11.8612620725 4.51316506107e-21)
(56.1869265833 11.212672039 1.93610746561e-18)
(55.926349923 11.7295700382 -2.30371595707e-19)
(56.0217237337 11.124945248 -1.51865013344e-19)
(55.7629486316 11.5988958507 -4.1404826755e-18)
(55.868578849 11.0380943447 -1.55614766418e-19)
(55.6140681326 11.4701551224 -1.76680689658e-19)
(55.7271693057 10.9526382609 1.21292631068e-18)
(55.4790529974 11.3441749644 1.26931714112e-17)
(55.3585650671 11.2213804235 5.33964164761e-18)
(55.5976737197 10.8692667632 -1.78337477497e-18)
(57.6596966615 13.6580669451 1.58680630418e-17)
(57.1259975711 14.5400953134 1.15882424704e-17)
(57.3448588598 13.5040854598 -8.8178587973e-18)
(56.7812446321 14.3334734172 -1.1738270692e-17)
(57.0470078225 13.3425609116 -1.46594483357e-17)
(56.460131912 14.1249189997 -2.3874127141e-17)
(56.7669626691 13.1749660049 -3.22353392572e-18)
(56.1636875968 13.908113377 -2.25399933376e-18)
(56.5064334559 13.0027993765 1.61096473084e-17)
(55.8919854952 13.6843543867 1.62181214884e-17)
(56.266694855 12.8275630191 1.11013047931e-17)
(55.645349972 13.4532529552 1.03953180283e-17)
(56.0471782637 12.6506646249 -1.44019667718e-17)
(55.4225476453 13.2216169007 -2.50942029741e-18)
(55.8471624352 12.4733933431 -1.20187593658e-17)
(55.2226962952 12.9908862117 -1.21109915545e-17)
(55.6653373755 12.2968989804 -2.17940679972e-18)
(55.0447300247 12.7624215433 1.21119893351e-19)
(55.5011649283 12.1221947753 -6.31364088694e-18)
(54.8876816254 12.5375461214 4.85277301934e-18)
(55.3540910233 11.9502418502 -4.1710136946e-18)
(54.7508529528 12.3173598017 -1.06012769178e-17)
(55.2234965653 11.7819892538 1.26795723691e-17)
(54.6336503274 12.1029133005 -4.3410210579e-18)
(55.108724198 11.618349314 1.68420251309e-17)
(54.5349655426 11.8952260368 1.86706290585e-17)
(54.4560362335 11.6950080689 2.13196313308e-18)
(55.0100915203 11.4600395139 -3.81054496355e-18)
(56.2419247817 15.2445774089 -1.60485619144e-17)
(55.3610657117 16.4007544946 -4.37088261933e-18)
(55.8933726575 14.9657431791 -2.68101355387e-17)
(54.9939903346 16.0226534536 -1.16476078744e-17)
(55.5765756551 14.6817499629 -1.14745427177e-17)
(54.6640620361 15.6422754698 -1.07100482633e-17)
(55.2903305299 14.3948846675 1.72012668976e-17)
(54.3705069733 15.2616313713 7.60819210001e-18)
(55.0332362252 14.1071944376 1.04899368407e-17)
(54.1117739332 14.8827690236 2.1255940819e-17)
(54.8034373056 13.8203861494 -3.23003595158e-18)
(53.8860977636 14.5075478824 -6.17211208117e-18)
(54.5999774442 13.5359508094 -1.88156599259e-19)
(53.6919179231 14.1376234759 -1.63581397034e-17)
(54.421900446 13.2552842843 4.30503512633e-20)
(53.527991999 13.7743764171 2.90302876271e-18)
(54.2683109831 12.9797278248 7.16980232781e-18)
(53.393156639 13.4190205881 5.48801090005e-18)
(54.1383907042 12.7105709424 5.86925906005e-19)
(53.2862313142 13.0727135974 1.19095690576e-17)
(54.0312670072 12.4490557765 -1.0784754638e-17)
(53.2059108313 12.7366056092 -2.01102830708e-17)
(53.9459825816 12.1963073674 1.62218170547e-18)
(53.1508661682 12.4117633435 -1.03054293381e-17)
(53.881600948 11.9535014026 3.95594098506e-18)
(53.1191483914 12.0990810994 1.1530937519e-17)
(53.1121845287 11.7994951916 -6.2894543342e-18)
(53.8388758951 11.720670361 -6.98786109125e-18)
(54.10598616 17.2038427054 5.65258164018e-20)
(52.4819198146 18.1242371442 8.88418221354e-20)
(53.7578827031 16.722488152 4.50207940317e-18)
(52.1404383676 17.5182677558 -1.64456695725e-17)
(53.4515949315 16.244202291 8.39820810344e-18)
(51.8465264371 16.9192253232 -1.64670985868e-17)
(53.1855388828 15.7708051145 1.16481022831e-17)
(51.5978224694 16.3291152177 2.75541291976e-17)
(52.9581186377 15.3039398176 4.59564042631e-18)
(51.3919689667 15.7497825614 3.74228604682e-17)
(52.7678097707 14.845110038 -1.93299741321e-17)
(51.226782227 15.1829918501 -2.33320645672e-17)
(52.6131852246 14.3956758207 -1.33054474778e-17)
(51.1004099809 14.6304572359 -3.74414580043e-17)
(52.4927324218 13.9568660766 8.36302881548e-18)
(51.0111247023 14.0938708043 2.99655837797e-18)
(52.4048557449 13.5298296954 1.02271960066e-17)
(50.9570707377 13.5748982905 5.60209061172e-18)
(52.3478676691 13.1156548442 -8.79551850223e-18)
(50.9361115133 13.0749456232 9.45235783909e-18)
(52.3198836704 12.7153112582 -1.9657715964e-17)
(50.9456386467 12.5954742029 -1.18905000699e-17)
(52.3189400966 12.3295558069 -4.15429416114e-19)
(50.9832382113 12.1377085087 -5.57248589773e-18)
(52.3430846098 11.9594054404 1.29445060198e-18)
(51.0460474429 11.7026928797 2.53974804897e-18)
(51.1365203504 11.2922350722 -6.67890929193e-18)
(52.3931352763 11.6043412626 1.21627362028e-18)
(50.5215322363 18.3773459208 -1.64390811466e-17)
(48.1546035194 19.2791482369 1.32209849832e-19)
(50.2330457801 17.6575390216 -3.75071302459e-17)
(47.9234752623 18.4028022605 -2.3234411316e-17)
(49.9953851201 16.9504128226 2.64698857919e-18)
(47.7444618825 17.5501472066 -9.04078536247e-18)
(49.8056240361 16.2579080883 5.3420992383e-17)
(47.6145513044 16.7226256481 3.37263035195e-17)
(49.6609376521 15.5819882059 9.53403720382e-18)
(47.5316194587 15.9215245751 1.99710980432e-17)
(49.5588969694 14.9247059231 -4.15017808305e-17)
(47.4940309074 15.1472438703 -2.49906144862e-17)
(49.4972508232 14.2882041771 -2.11829066846e-17)
(47.5005530737 14.4013353358 -2.44988904197e-17)
(49.4737821804 13.6746097016 2.12115543411e-19)
(47.549784377 13.6845481302 2.52102992852e-18)
(49.4861683208 13.0858129622 4.81027394168e-18)
(47.6406381489 12.9990368102 -6.16936011773e-18)
(49.5312628647 12.5235061189 6.41521538036e-18)
(47.7718458275 12.3498177999 2.70125303564e-18)
(49.6058200893 11.9892921325 2.26169474445e-18)
(47.9409913382 11.7383934212 7.75221774156e-18)
(49.707305738 11.4848348667 -2.62426473852e-18)
(48.1479382055 11.1631946329 4.32924386464e-19)
(49.8335286654 11.0123798193 -5.44615992568e-18)
(48.3884221706 10.6234759794 -1.44038007039e-18)
(48.6616303865 10.116757066 -4.89756473241e-19)
(49.9868709281 10.5691865844 -4.53261912011e-18)
(45.5301725064 19.3939930886 -6.64023927319e-18)
(41.6727921814 18.982369323 1.49467627149e-17)
(45.4086361392 18.383117668 5.33455781071e-18)
(41.7300226192 17.877479157 1.38611356734e-17)
(45.3375974781 17.4080077122 2.20707814553e-17)
(41.8327316176 16.8094228485 -8.94418644991e-19)
(45.3151484856 16.4694409327 1.55378342139e-19)
(41.9798088453 15.7762773708 -1.89842873289e-17)
(45.3402761624 15.5671046924 -1.4586933214e-17)
(42.1710780675 14.7759139903 6.25619216603e-19)
(45.4124846898 14.7008526615 -7.89366999875e-18)
(42.4062340657 13.8056153984 9.58661049404e-18)
(45.5313287514 13.8707818458 -7.48907438833e-19)
(42.6835338189 12.8643837129 -1.2040238566e-17)
(45.6965398047 13.077868995 -3.86592771375e-18)
(43.0007379319 11.9511837257 3.18188989839e-18)
(45.907678039 12.3274238557 -8.31941828971e-18)
(43.3549729482 11.0684130151 2.07736284044e-19)
(46.1640088068 11.6243837964 4.02878804097e-18)
(43.7445635929 10.2201827554 -2.93962947307e-18)
(46.4643933685 10.966951257 5.93763364123e-18)
(44.1622438428 9.41064397621 6.08270344163e-18)
(46.8079397203 10.3511288224 1.62936549379e-18)
(44.6072143249 8.63971893095 7.47183361023e-19)
(47.192039863 9.77293318657 3.53916133088e-18)
(45.0678476842 7.91759726279 1.81907986854e-18)
(45.5335945746 7.25350331577 2.06541456118e-18)
(47.6173233647 9.2236517579 1.46813781338e-18)
(37.964575847 17.3932226135 3.50404728236e-17)
(38.240769327 16.2444227072 7.643945023e-18)
(34.6421685097 14.7982443246 1.36348319759e-17)
(38.5567104283 15.1297555852 -4.13131732189e-17)
(35.1618362607 13.6136284567 -3.3957830558e-18)
(38.9130836545 14.0448604517 -1.83513226024e-17)
(35.7069893086 12.4570589836 -8.74817646595e-18)
(39.3100783531 12.9858352344 2.44061999596e-17)
(36.2704925354 11.3297689824 2.28830956077e-18)
(39.7461549447 11.9494733847 5.32205663149e-18)
(36.8427600531 10.2344099132 7.88626599217e-18)
(40.218264751 10.934189603 -8.05067994082e-18)
(37.4111138042 9.17399769536 -4.05473924145e-18)
(40.720708994 9.94085163532 7.13436438404e-18)
(37.9633292669 8.1624661409 3.56812196143e-18)
(41.2453421473 8.97127710633 5.44060351184e-18)
(38.4867393918 7.21425451854 5.38349145412e-19)
(41.7841167849 8.02768063642 -8.42443484158e-19)
(38.9590277766 6.32893371283 -2.26256847025e-18)
(42.3295847183 7.1164755765 9.5115475176e-19)
(39.3588441522 5.50792576406 -1.68762968258e-18)
(42.8744790254 6.25192179464 9.44685090632e-19)
(39.6995729811 4.75664608594 9.10730212503e-19)
(43.4136429186 5.45725459801 3.82647260557e-19)
(39.9933101572 4.08180630756 -6.35596924072e-19)
(43.9540121238 4.74101457759 1.6613346829e-18)
(40.2625245199 3.48149990668 -4.22941074819e-18)
(53.2228171325 0.349561288655 -2.27142929344e-18)
(53.3115934338 0.771907099996 3.09578909166e-19)
(53.1293357 0.353353825046 1.18914038856e-18)
(53.2192486562 0.779087970472 1.0617514202e-18)
(53.0325724912 0.357167490059 2.25116085905e-18)
(53.1236521545 0.786330484344 -9.75471233779e-19)
(52.9324131669 0.36101484568 8.13029155563e-20)
(53.024737254 0.793665336864 9.70534055167e-19)
(52.8287373357 0.364894902997 -1.51597073583e-19)
(52.9223639553 0.801094057858 -2.77065687655e-18)
(52.7214174948 0.368803538551 1.93210728841e-19)
(52.8164021923 0.808605584159 3.33001467524e-18)
(52.6103230095 0.372738486956 -2.68074990009e-18)
(52.7067264485 0.816193043131 1.66921895682e-18)
(52.4953205417 0.376697932427 6.61414574827e-19)
(52.5932064693 0.823853789247 -5.04239858275e-18)
(52.3762723933 0.380679171954 4.56785688301e-18)
(52.4757045729 0.831583462869 2.39287347539e-19)
(52.2530365408 0.384680025563 1.78932004148e-18)
(52.354079233 0.839376886781 5.78216925892e-19)
(52.1254674422 0.3887007493 7.43162139465e-19)
(52.2281861946 0.84723246997 2.84514246986e-18)
(51.9934171202 0.392741879152 7.99147899178e-19)
(52.0978774483 0.855154220334 1.58784487392e-18)
(51.8567307166 0.396798121551 -2.43158246972e-18)
(51.9629990837 0.863138091487 1.35721789396e-19)
(51.7152444416 0.400861184116 3.39700493579e-19)
(51.8233885563 0.871167848914 -2.58893057341e-18)
(51.5687909462 0.404925858608 3.21631911238e-18)
(51.6788773871 0.879231999776 7.63516460442e-18)
(51.4172000381 0.408987386296 1.33718654011e-18)
(51.5292937899 0.887323740293 1.98914627411e-18)
(51.2602969119 0.413039028191 2.91076210029e-18)
(51.3744615713 0.895432044589 -4.33035465389e-18)
(51.0979024651 0.417074370325 -1.35413197238e-18)
(51.2142005954 0.903543964692 5.77109008355e-20)
(50.9298366352 0.421087303832 -4.66219318799e-18)
(51.0483276346 0.911651027735 -2.38541383322e-18)
(50.7559151568 0.425069207007 -3.03004635275e-18)
(50.876655928 0.919742028978 -3.54513946487e-18)
(50.5759471181 0.429008907954 -1.5540030362e-18)
(50.6989920219 0.927798785337 -3.66077191152e-18)
(50.3897385419 0.43289226504 1.25076398186e-18)
(50.5151367255 0.935802147687 2.08802878806e-18)
(50.1970897402 0.436700633013 2.56917619127e-18)
(50.3248858573 0.943722788631 3.42563491473e-18)
(49.9978003293 0.440412528707 -2.31016866697e-18)