/*--------------------------------*- C++ -*----------------------------------*\
  =========                 |
  \\      /  F ield         | OpenFOAM: The Open Source CFD Toolbox
   \\    /   O peration     | Website:  https://openfoam.org
    \\  /    A nd           | Version:  7
     \\/     M anipulation  |
\*---------------------------------------------------------------------------*/
FoamFile
{
    version     2.0;
    format      ascii;
    class       surfaceVectorField;
    location    "1";
    object      Uf_0;
}
// * * * * * * * * * * * * * * * * * * * * * * * * * * * * * * * * * * * * * //

dimensions      [0 1 -1 0 0 0 0];

internalField   nonuniform List<vector> 
14892
(
(54.5196156214 0.281634070665 -2.00873895814e-18)
(54.6219174322 0.643103291797 4.79872935385e-19)
(54.4146786489 0.287849199703 -4.44979482845e-18)
(54.5172557149 0.65485368421 -1.86667675012e-18)
(54.3081867425 0.293942955673 3.35367049499e-18)
(54.4109322328 0.665870651218 -1.22853178163e-18)
(54.19999313 0.299915722665 4.62760558997e-18)
(54.3029895465 0.677812627963 3.98288804771e-18)
(54.090195046 0.305775632058 -4.11124218385e-18)
(54.1934714435 0.689167596751 -6.76736810186e-19)
(53.9788384867 0.311528252008 -8.231579714e-18)
(54.0823924607 0.700251515353 -3.36630163842e-18)
(53.8659577368 0.317176062615 -3.40739882661e-18)
(53.969780876 0.711134787581 -4.8164574589e-18)
(53.7515854352 0.32272078778 7.20722147615e-19)
(53.8556696495 0.721825120692 6.9919979981e-19)
(53.6357529231 0.328164708273 -2.83677303129e-21)
(53.7400905138 0.732328196492 4.29920320062e-18)
(53.5184917763 0.333512495561 4.35278808344e-18)
(53.6230744138 0.74265041673 1.41371100246e-18)
(53.3998351731 0.338769300306 4.36369466324e-18)
(53.5046535364 0.752802430032 6.61849994055e-19)
(53.2798127948 0.343934514829 -2.24325686897e-18)
(53.3848558949 0.762787667257 2.57539428959e-21)
(53.158448665 0.348995439017 -2.24655887279e-18)
(53.2637148696 0.772598606048 -2.2352513291e-18)
(53.1411576655 0.782156859453 -2.26557136889e-18)
(53.0356830583 0.353971219708 -2.34165370406e-18)
(54.6189805377 1.00388884241 6.03853906063e-19)
(54.7502994182 1.2858057763 -1.30606417034e-18)
(54.5128778156 1.02103927545 1.31276786435e-18)
(54.6442011436 1.30957246555 -1.30652862297e-18)
(54.4051399595 1.03792666381 -5.72656793556e-19)
(54.5364682715 1.33182561279 -5.64365056833e-19)
(54.295886554 1.05454290006 -1.27671677157e-18)
(54.4270999791 1.35427938438 -1.27852164551e-18)
(54.1850831301 1.07088814589 3.83848706263e-20)
(54.3161788486 1.37637528838 6.76218689147e-19)
(54.0727474866 1.08696483221 -1.17739779011e-20)
(54.2037358372 1.3981072736 2.12347511066e-18)
(53.958907598 1.10277440184 -7.31697935533e-19)
(54.0897889779 1.41948085028 -6.88963325652e-19)
(53.8435919064 1.11831791806 4.24981188975e-18)
(53.9743648327 1.4404986269 -1.48602177631e-18)
(53.7268306527 1.13359995608 5.67366348633e-18)
(53.8574968011 1.46116471151 3.45534662792e-18)
(53.6086563846 1.14863001082 -2.22680752373e-18)
(53.7392201072 1.4814897262 1.42592125156e-18)
(53.4890994315 1.16341217958 -3.63792546548e-18)
(53.6195657274 1.50148133336 -2.12407017851e-18)
(53.3681840463 1.17793931558 -6.03093745433e-21)
(53.4985545907 1.52113559616 1.4856853035e-18)
(53.2459329819 1.19216060365 -2.25410830081e-18)
(53.3762205646 1.5404424504 -3.71489554276e-18)
(53.2524623514 1.55934399432 -2.70310041341e-18)
(53.1222573847 1.20615024569 -1.91030454204e-18)
(54.7740139841 1.59242682262 -3.18276698922e-18)
(54.9509204716 1.93214270988 7.43696849769e-19)
(54.6663037685 1.62109159409 -3.14416907726e-18)
(54.8422748794 1.9663406582 -2.53700569941e-18)
(54.5568864229 1.64930805576 -1.26378352727e-18)
(54.7320457474 1.99989925895 -2.55359502323e-18)
(54.4458904999 1.67707722185 6.56309527803e-19)
(54.6202389373 2.03290008446 2.75824839726e-18)
(54.333350696 1.70439563952 2.73645075265e-18)
(54.5068983085 2.06534949989 1.97155856454e-18)
(54.2193009559 1.73126357378 1.43402624363e-18)
(54.392074009 2.09724584068 -2.13475727832e-18)
(54.1037751579 1.7576853593 -1.4364715369e-18)
(54.2758036057 2.12859378121 6.91210291776e-20)
(53.9868079503 1.78366958522 -2.22178317899e-18)
(54.1581201883 2.15940530575 4.36718235596e-18)
(53.8684354729 1.80922857549 -7.31893515186e-19)
(54.0390598892 2.18969878768 -8.30059293195e-19)
(53.7486892354 1.83437006046 1.49460662181e-18)
(53.9186559513 2.21948732469 -2.99141025903e-18)
(53.6275928512 1.85909269067 2.93629945601e-18)
(53.7969340562 2.24877046522 1.45344829596e-18)
(53.5051683902 1.88339051028 -2.20055191487e-18)
(53.6739116529 2.27754552733 7.48641240701e-19)
(53.381438486 1.90721528224 -4.14655502029e-18)
(53.5496288834 2.30581151816 -1.26541648399e-18)
(53.423961912 2.3334298604 -2.54191355622e-18)
(53.2563000859 1.9306621012 1.01569825234e-18)
(55.0174668187 2.29484894134 1.35491114963e-18)
(55.2216899632 2.59376700381 4.63500232488e-18)
(54.9063652614 2.33377670979 -1.95555748581e-18)
(55.1092814963 2.6381062689 1.4475634596e-18)
(54.79372242 2.37202353285 1.44536021918e-18)
(54.995366221 2.68165503941 -6.19076283527e-18)
(54.6795791899 2.4096010142 4.04672154573e-18)
(54.8799891259 2.72442066989 4.78606331503e-18)
(54.5639749011 2.44651982219 -2.853396712e-18)
(54.7631899139 2.76641821324 1.40937103026e-18)
(54.4469464071 2.48279035772 -3.46086481213e-18)
(54.6450093944 2.80766437983 -1.99843346483e-18)
(54.3285305506 2.51842643345 5.81262109573e-18)
(54.5254889218 2.84817750637 8.3338010833e-21)
(54.2087665457 2.55344685381 5.69600870566e-18)
(54.4046696798 2.88797983763 4.98164597571e-18)
(54.0876890445 2.58786649104 -3.06974499594e-18)
(54.2825874194 2.92709154169 -4.53291668447e-20)
(53.9653217819 2.62168826903 -2.99700269578e-18)
(54.1592666294 2.96551983332 -4.52328919914e-18)
(53.8416861147 2.65491144421 -7.04092316241e-19)
(54.0347304785 3.00326691131 -7.93963706249e-19)
(53.7168066428 2.6875401292 1.65207181985e-18)
(53.9089987054 3.04034222151 -5.37858024301e-18)
(53.5907055761 2.7194956874 3.03061710881e-19)
(53.7821169677 3.07675377432 7.82842068283e-19)
(53.6539097437 3.1123751688 3.50906036424e-18)
(53.4632228334 2.75094481211 -3.46018437012e-18)
(55.311272919 2.93742771263 4.70578960093e-18)
(55.5530946559 3.2772419958 3.76383850546e-19)
(55.1960819581 2.98625845334 -2.77980983261e-18)
(55.4356589013 3.33090217468 -2.06958151935e-18)
(55.0794584328 3.03419765751 -2.82412780272e-18)
(55.3168575325 3.38350744045 1.69105458721e-18)
(54.9614476623 3.08126248126 2.16272926487e-18)
(55.1967473194 3.43508298233 1.36272924732e-18)
(54.8420966511 3.12747345496 2.22993631406e-18)
(55.0753801654 3.48565846284 -3.74845508731e-18)
(54.7214512054 3.1728551854 1.43600218208e-18)
(54.9528095223 3.53527031381 1.52030596326e-18)
(54.5995516619 3.21743153803 -7.78333868113e-19)
(54.8290802691 3.58394988723 8.02559843155e-19)
(54.47643559 3.2612214542 -7.13740282611e-19)
(54.7042278992 3.63172116258 8.35854241015e-19)
(54.3521309501 3.3042375908 -1.50868235965e-18)
(54.5782832423 3.67860370584 4.10452112784e-18)
(54.2266598672 3.34649001318 -2.32620820367e-18)
(54.4512721141 3.7246144466 -2.36196209377e-18)
(54.1000482895 3.38799326338 -5.4337839186e-18)
(54.3232231587 3.76977537382 -3.17507368475e-18)
(53.9723217708 3.42876231924 -6.1940885072e-18)
(54.1941571154 3.81411437174 -4.69106199174e-18)
(53.8434989848 3.46872701567 3.96075006219e-18)
(54.0641265258 3.85765447741 -2.4168457299e-18)
(53.9329231776 3.90021838486 6.43536452808e-18)
(53.713381705 3.50807908998 6.71047313738e-18)
(55.675530571 3.66260664882 -6.33278513217e-18)
(55.9383667811 3.99445690554 -1.94170099339e-18)
(55.5545152726 3.71996973087 2.36991593729e-18)
(55.8142874399 4.05610169266 -3.5570665308e-18)
(55.4322598201 3.77614442273 5.82674624673e-18)
(55.6890825349 4.1163794965 6.63803996732e-18)
(55.3088231953 3.83116958422 -4.50771963388e-18)
(55.5628268132 4.17533909212 -4.74138098897e-18)
(55.1842675368 3.8850888231 -4.42014543695e-18)
(55.4355905943 4.23303844647 -5.22299866616e-18)
(55.0586423749 3.93794029795 8.90564073725e-19)
(55.3074312318 4.28952897498 4.85931472711e-18)
(54.9319823493 3.98975229567 2.39781522172e-18)
(55.1783857105 4.34484420222 -8.21380107429e-19)
(54.8043210694 4.04054970991 5.61533805385e-18)
(55.0484865576 4.39901617908 -2.50311219702e-18)
(54.6756895309 4.09035953223 3.22504819719e-18)
(54.9177701947 4.45208382607 6.57529563316e-18)
(54.5461172411 4.13921324341 -3.20515695905e-18)
(54.7862705434 4.50409097795 2.44681532636e-18)
(54.4156334272 4.18714666544 -2.45007260021e-18)
(54.6540208726 4.55508561166 -3.2689569679e-18)
(54.2842640745 4.23419687003 -9.46301353376e-19)
(54.5210424038 4.6051191238 -8.70508874758e-19)
(54.1520285292 4.28027993316 7.52780048704e-20)
(54.3873950197 4.65424029852 -3.32322920251e-18)
(54.2528177648 4.70227797446 4.91589648918e-18)
(54.0186665118 4.32567040302 3.61984693124e-18)
(56.0749011221 4.38698272719 7.98523007266e-19)
(56.3622513407 4.7545809502 1.84989395682e-18)
(55.9466759358 4.45145020542 7.16438612438e-19)
(56.2297248593 4.8222949361 -8.84745877577e-19)
(55.8175179037 4.51442653925 -3.87770380512e-18)
(56.0964613277 4.88826764042 -9.45659801949e-19)
(55.6875061756 4.57597939572 -5.45171044673e-18)
(55.9625576212 4.95258812547 -7.25115828188e-18)
(55.5567061532 4.63616782619 4.01099586121e-18)
(55.8280885453 5.01533510567 2.62620877992e-18)
(55.4251598984 4.69503589888 3.13757250698e-18)
(55.6931028721 5.0765642664 9.07509689817e-18)
(55.2929042635 4.75262613583 -5.68093186859e-18)
(55.5576409714 5.1363294024 -4.22522729566e-18)
(55.1599801199 4.80898945313 -1.50974138837e-18)
(55.4217489217 5.1946983233 -6.67833715861e-18)
(55.0264260916 4.86418216007 5.78505688919e-18)
(55.2854719251 5.25174591041 4.19232584519e-18)
(54.8922762922 4.91826454339 2.35616829464e-18)
(55.1488468799 5.30754997832 4.14964682757e-18)
(54.7575638552 4.97130233533 -1.69409663226e-18)
(55.0119122409 5.36219677161 -1.82392418379e-18)
(54.6223169898 5.0233598779 -3.2349604303e-18)
(54.8746937583 5.41577870664 -8.10056577731e-19)
(54.4865486322 5.07436734585 1.50465920714e-18)
(54.7372517089 5.46837089868 -1.47132511338e-18)
(54.5992800783 5.51975739037 3.57844554071e-18)
(54.3499366555 5.12462664514 6.56630475392e-18)
(56.5153426346 5.18388062199 1.70331603114e-19)
(56.8105413808 5.5704814741 1.02041521985e-18)
(56.3778275095 5.25307552664 -2.53276191715e-18)
(56.6672787234 5.64141119465 4.03434318284e-18)
(56.2398682066 5.32037386642 -4.31524526291e-18)
(56.5238738294 5.7101539442 -7.32735226784e-19)
(56.1015509529 5.38586887801 7.97373008702e-19)
(56.3804332396 5.77683134797 -6.50245447763e-18)
(55.9629333391 5.44963336631 7.67306908837e-18)
(56.2370242726 5.8415352975 6.21525142131e-18)
(55.8240643125 5.5117374944 1.72246883236e-18)
(56.0937043446 5.90435502722 6.25560424065e-18)
(55.6849974005 5.57226415657 -5.22401794632e-18)
(55.9505352055 5.96539807616 -7.33467165403e-18)
(55.545783054 5.6313053002 -9.81913911151e-19)
(55.8075752193 6.02478205426 -2.6711579139e-18)
(55.4064638477 5.68895739549 2.57049836569e-18)
(55.664873646 6.08262775764 4.50822189235e-18)
(55.2670793602 5.7453254375 -1.87212090407e-20)
(55.5224735606 6.13906462351 9.19451879138e-19)
(55.127669173 5.80051954751 -9.43312256479e-19)
(55.3804200277 6.19423352828 -9.58236809895e-19)
(54.9882539286 5.85463543544 9.36334497527e-19)
(55.2387289932 6.24826278537 -4.65111072384e-18)
(54.8488259488 5.90759168105 6.02783301803e-19)
(55.0974399717 6.30124518377 9.44151758746e-19)
(54.9562069717 6.35295592493 3.96132252345e-18)
(54.7089922252 5.95975748694 -1.06521975293e-18)
(56.9607547642 6.02617464337 4.86692318309e-18)
(57.2561979187 6.45515658682 -1.25104088368e-18)
(56.8116704897 6.09656550141 5.80634060537e-18)
(57.0996335935 6.52524516013 3.72722947616e-18)
(56.662848259 6.16459893818 -2.9231875389e-18)
(56.9438107254 6.59258729828 2.25495070428e-18)
(56.5143707329 6.23039477873 -1.0819132092e-18)
(56.7888350254 6.65733223004 -3.98828372918e-18)
(56.3663084891 6.29406867903 4.80768952267e-18)
(56.6347866122 6.71962247681 3.89333725518e-18)
(56.2187349394 6.3557513441 -2.78182105391e-18)
(56.4817473384 6.7796229543 3.12691028119e-18)
(56.0717177302 6.41558471732 -4.78468950071e-18)
(56.3297932836 6.8375127796 -5.70366678514e-18)
(55.9253128772 6.47371587455 2.80386020983e-18)
(56.1789866855 6.89347483441 1.02053163683e-18)
(55.7795697996 6.5303001398 2.8572608918e-18)
(56.0293803521 6.94769996673 1.68496838352e-18)
(55.6345346029 6.58549967473 -1.94766539777e-20)
(55.8810204023 7.00039072409 1.03743596888e-18)
(55.4902341399 6.63946394707 -4.65244538272e-18)
(55.7339359737 7.05173600601 -2.12076805385e-18)
(55.346664561 6.69231224577 -4.62628285421e-18)
(55.5881117572 7.1018900428 -5.55500508977e-18)
(55.2038038497 6.74398628419 4.28791188083e-18)
(55.4435675766 7.15099023695 1.96709081487e-18)
(55.2999694132 7.19883099787 5.07517599092e-19)
(55.0612204221 6.79491587375 2.85194237191e-18)
(57.3940851194 6.94864431215 -2.37195260326e-18)
(57.6707802644 7.42329608038 -3.87850584011e-18)
(57.230836828 7.01572693999 1.91938657026e-19)
(57.497744251 7.48635849204 -9.98776107316e-18)
(57.0689095154 7.07981419349 1.18039056605e-18)
(57.3267046636 7.54596700355 1.28749213993e-18)
(56.9084026658 7.14109067203 9.78974155284e-19)
(57.1577929219 7.60236112429 1.14878289888e-18)
(56.749413377 7.1997542894 2.22009872928e-18)
(56.9911200518 7.65579437886 1.0588813449e-18)
(56.5920281688 7.25601809406 1.99585528626e-19)
(56.8267853423 7.70653619593 1.2080391688e-18)
(56.4363173658 7.31010180746 8.61236019498e-20)
(56.6648715914 7.7548596116 -9.19055510668e-19)
(56.2823384533 7.36223254699 -9.07581495311e-20)
(56.5054444643 7.80104220093 8.3136702569e-18)
(56.130139806 7.4126429944 -1.26591923205e-19)
(56.3485548436 7.84536860629 -1.13015996272e-18)
(55.9797475713 7.46155213732 -1.06016873295e-18)
(56.1942297762 7.88810961568 -1.21236537186e-18)
(55.831153602 7.50915211661 -3.02673964829e-18)
(56.0424645335 7.92950062395 -3.18952555094e-18)
(55.6843329047 7.55561989952 1.02114104745e-18)
(55.8932218636 7.96976482804 -4.38091242133e-18)
(55.5392516291 7.60095215928 -1.79630051019e-18)
(55.7464970174 8.00912932404 -3.56748604625e-18)
(55.6019890275 8.04743913669 4.43815925006e-19)
(55.3954527502 7.64567064127 -5.54320534841e-18)
(57.7735144934 7.95941346961 -1.14729098166e-17)
(57.9994653029 8.4903500622 2.05111700142e-18)
(57.5927615432 8.01483129995 -8.8766995061e-18)
(57.8066523332 8.53786368873 -1.19027468411e-17)
(57.4148107214 8.0665955726 1.25582667916e-18)
(57.6177443884 8.58112272222 -6.12183453372e-18)
(57.2397965146 8.11501967618 1.22817723393e-18)
(57.4328937234 8.62051545015 2.73603835064e-18)
(57.0678367503 8.16042529773 5.1153270712e-20)
(57.2522142986 8.65643037412 -6.4874967547e-20)
(56.8990310728 8.20314183662 9.03502282456e-20)
(57.0757963561 8.68926789005 -1.41283853701e-18)
(56.7334560342 8.24349870507 7.29171080659e-18)
(56.9037120875 8.71943352704 -2.77201830413e-18)
(56.5711626341 8.28181710336 7.2634351771e-18)
(56.7360057739 8.7473102364 9.96947749516e-18)
(56.4121815964 8.31840479584 -2.21201547225e-18)
(56.5726929405 8.7732614619 -3.98470026129e-18)
(56.2565112743 8.35355102668 -3.33685659666e-18)
(56.4137602745 8.7976419857 -4.90791036989e-18)
(56.1041213562 8.38753398848 -4.54045354957e-18)
(56.2591644807 8.82080954843 6.63836745156e-18)
(55.9549691248 8.42062689094 -8.95167680426e-18)
(56.1088354789 8.84312616234 1.69514161271e-18)
(55.8089905564 8.45291646788 -1.33172855509e-18)
(55.9627025293 8.8649394803 -3.12709199932e-18)
(55.8205550219 8.88616950146 5.20349505835e-19)
(55.6657357627 8.48498693551 9.06778018154e-18)
(58.0329037717 9.06069356673 1.60677424495e-18)
(58.1903736429 9.6697070934 6.77690720428e-19)
(57.831966032 9.09620941372 -9.14963734365e-18)
(57.9742580448 9.68824473292 8.01775228265e-19)
(57.6361891314 9.12726211512 -4.63635431855e-18)
(57.7647123467 9.70180489432 -6.18320785333e-18)
(57.4456961583 9.15431352969 1.44365173584e-18)
(57.561872676 9.71102907708 -3.90176409815e-19)
(57.2605734955 9.17783597774 -1.52727247671e-18)
(57.3658462666 9.71652710564 -8.6194796117e-20)
(57.0808883889 9.1983057906 -4.26948367509e-18)
(57.1767199387 9.71883900351 -3.05139386515e-18)
(56.906678548 9.21617291329 -8.84072877486e-20)
(56.9945421336 9.7184626602 -2.78975415885e-18)
(56.7379473409 9.23185799327 -1.26325080819e-18)
(56.8193224332 9.71586430356 2.69793080018e-18)
(56.5746735514 9.24578841666 -6.6752412773e-18)
(56.6510965355 9.71153871499 -3.99003338657e-18)
(56.4167994338 9.25841037404 5.05465597614e-18)
(56.4898731575 9.70605917415 -2.71539176279e-18)
(56.2642393361 9.27016888685 1.28576384293e-17)
(56.3355457703 9.69995849413 9.15942285816e-18)
(56.1168867467 9.28148499995 7.50368958663e-18)
(56.1879411021 9.69373094122 5.11671285139e-18)
(55.9746107512 9.29258097916 -1.27884777848e-18)
(56.0468570092 9.68784708634 6.25876630991e-18)
(55.9121989032 9.68235808072 -2.88811343129e-18)
(55.8369992462 9.30411827308 -4.43634680549e-18)
(58.1314358854 10.2975630928 -1.25648565859e-19)
(58.1281401536 10.9683391277 -3.9091467258e-18)
(57.9067719308 10.2940308457 3.76104585324e-18)
(57.8872789028 10.9415953774 3.79029481632e-18)
(57.6902061532 10.2857679083 -1.94147712914e-18)
(57.6573603332 10.9095224604 -2.23099255093e-18)
(57.4818627598 10.2734692037 -1.9180454696e-18)
(57.4379939048 10.8727729902 -1.89799071221e-18)
(57.2818646063 10.2577270291 -1.6091049462e-18)
(57.228715249 10.8318898391 2.06921962107e-18)
(57.0902805947 10.2390910462 -1.57305526313e-18)
(57.0294998722 10.7876702434 -9.56360483963e-18)
(56.9071229202 10.2181110586 -5.45732918749e-21)
(56.8405856726 10.7408717395 1.99239247602e-18)
(56.7323879897 10.195380017 -2.69210088483e-20)
(56.6622076696 10.6920362795 7.39287836821e-18)
(56.5662985365 10.1715209913 -3.34441266955e-20)
(56.4945582819 10.6404159892 -1.68604573026e-18)
(56.4086750147 10.1471357192 1.38635172824e-18)
(56.3371729208 10.5888336846 8.25743630374e-18)
(56.2593244339 10.1227974324 1.42391630664e-18)
(56.1897734982 10.5378695484 1.3002445794e-18)
(56.1180260034 10.0990422934 3.87270489465e-18)
(56.0520939019 10.4881604839 -6.0356453877e-18)
(55.9845339172 10.0762369505 4.65641718092e-18)
(55.923749385 10.4403216911 5.36933931975e-18)
(55.8047846622 10.3950778482 -4.97118226612e-18)
(55.8584547888 10.0550202896 -4.12814058172e-18)
(57.885924614 11.5981621269 3.49721618322e-21)
(57.7318177436 12.3763003571 1.46722740853e-17)
(57.639926108 11.5428274843 -2.19911037109e-18)
(57.4664879095 12.2708477109 2.80247936687e-18)
(57.4074310815 11.4819094552 -2.18748749766e-18)
(57.2156814171 12.1632407877 -4.74622996523e-18)
(57.1868005848 11.4162970849 2.08833097814e-18)
(56.9790805968 12.0605404986 7.69918524125e-18)
(56.9781409994 11.3470304496 -5.8795060825e-18)
(56.7585687108 11.9536785391 2.07825278992e-18)
(56.781492529 11.2751329281 -6.00176904147e-18)
(56.5540629715 11.8437757384 -5.79025107811e-18)
(56.5972376546 11.2015437602 9.39097583189e-18)
(56.3655569873 11.7296073432 4.27539841837e-18)
(56.4256218802 11.1271333607 5.7390197532e-18)
(56.1926401913 11.6123638013 -8.7526701913e-19)
(56.2660702284 11.052707145 6.60331518568e-18)
(56.0344717861 11.4958242803 -5.60631334836e-18)
(56.1183325209 10.9790199547 8.1763865983e-18)
(55.8905201376 11.3809133742 8.30304021582e-18)
(55.9820894135 10.9067863234 -6.15946833316e-18)
(55.7602796115 11.2685897871 1.49113583303e-18)
(55.8569782864 10.8366592672 -4.5469237449e-18)
(55.643329832 11.159750535 -9.42439197857e-18)
(55.7425979772 10.769143473 -4.25267196391e-18)
(55.5390109478 11.0552105773 1.46696894546e-18)
(55.4478157406 10.955399083 2.09124358741e-18)
(55.6389164725 10.7048009444 -7.40081508782e-18)
(57.3059254158 13.0901899687 1.74863004779e-17)
(56.7510690399 13.8505989729 7.48952393919e-18)
(57.034511048 12.9404233088 2.60186535182e-19)
(56.4617183575 13.6547633932 2.78722842098e-18)
(56.7802809588 12.7857156318 5.14090767816e-18)
(56.1956056249 13.4529151276 -5.87385768357e-18)
(56.5461495597 12.6274280188 7.69633513579e-18)
(55.9539267003 13.2408496605 4.56629259456e-18)
(56.3317870211 12.4669020704 2.17669935869e-18)
(55.7356783167 13.0271955512 8.60941846867e-18)
(56.1367303485 12.3054519382 4.49092192485e-18)
(55.5403043199 12.8136504208 2.15137170701e-18)
(55.9600253862 12.1442612242 -6.00454335517e-18)
(55.3668741298 12.6016743661 -3.10539347838e-18)
(55.800667281 11.9844135742 -1.22377618369e-17)
(55.2143979341 12.3926330813 -1.080334489e-17)
(55.658083965 11.8269864192 -3.9245072978e-18)
(55.0820189677 12.1877813829 5.6959416663e-19)
(55.5316559757 11.6730518625 1.61288031593e-18)
(54.9690211452 11.9882386788 6.03382079916e-18)
(55.4207678313 11.5236743934 -1.76376546696e-18)
(54.8747289998 11.7951037503 -1.68412351622e-19)
(55.3247977806 11.3798727715 -3.41360572181e-18)
(54.7985306398 11.6094148584 -6.76876935037e-18)
(55.2430958542 11.2426270715 7.82417515906e-18)
(54.7394213465 11.4320467876 -7.81286522432e-18)
(54.6985066065 11.263670963 1.07045062438e-17)
(55.1758713953 11.1126162108 7.77670068973e-18)
(55.9051793693 14.415615256 -7.23919419047e-18)
(55.0381579636 15.3328819925 -7.10459097443e-18)
(55.623786016 14.1500020039 -3.34796691968e-18)
(54.7480321507 14.9760242145 2.56410727767e-20)
(55.3712779037 13.8826815045 -6.47037602981e-18)
(54.4925245933 14.6192202922 -3.12753615908e-18)
(55.1457178684 13.6154372788 5.4705251319e-18)
(54.2700823082 14.2643151305 -2.77140953959e-18)
(54.9462933159 13.3497966369 8.59329722664e-18)
(54.0791365675 13.9131295775 5.09102291385e-18)
(54.7721776097 13.0871808247 -5.45902167084e-18)
(53.918398312 13.5671730168 -3.30056196545e-18)
(54.6225273905 12.8289725139 -7.90341186663e-18)
(53.7866554922 13.2277897824 -2.48927559313e-18)
(54.4965303409 12.5764986462 2.02521748845e-18)
(53.6826047516 12.8962489065 -2.26082055292e-18)
(54.3934145785 12.3310193141 1.0553422483e-17)
(53.6049952412 12.5737612246 4.51919156287e-18)
(54.3123697507 12.0937291603 4.26080867791e-18)
(53.5526273811 12.2614739982 7.99736994456e-18)
(54.2525949483 11.8657083244 -5.17497555882e-18)
(53.5241612981 11.9604743182 2.13823699068e-19)
(54.2132865045 11.6477979664 -1.118010093e-17)
(53.5182923453 11.671743787 -3.45213226321e-18)
(54.1936124289 11.4408779736 -4.97755770591e-18)
(53.5331809716 11.396114518 -9.40362594108e-18)
(53.5700401597 11.1348520259 3.25737949191e-18)
(54.1942153719 11.2442971502 1.12260675584e-17)
(53.8741105727 15.9146331639 1.7332160769e-19)
(52.2990051813 16.5746803647 -5.53774452686e-18)
(53.6102632049 15.4646588241 2.57266811659e-19)
(52.0465596 16.0078655984 -1.49253519345e-17)
(53.3850828991 15.0188556558 5.87890783036e-19)
(51.8370985686 15.4493774876 1.80406057501e-17)
(53.197133568 14.5787793637 -3.17226574133e-18)
(51.6684745476 14.9012582847 5.00329420064e-19)
(53.0448810521 14.1459315902 -6.83529268885e-18)
(51.5386270605 14.3656225719 -2.58330113184e-17)
(52.9266686907 13.7217207172 -3.2009265816e-19)
(51.4456051297 13.844539417 3.37205961287e-18)
(52.84072102 13.3074526473 3.18114535766e-18)
(51.3874155497 13.33995296 1.50364548267e-17)
(52.7853506363 12.9043309367 2.2510322697e-19)
(51.3621045676 12.8534655784 -7.2910117168e-18)
(52.758921277 12.5134673958 1.93904594476e-18)
(51.367736656 12.3865315133 -6.93393074334e-18)
(52.7596107497 12.1359010343 3.95325427293e-18)
(51.4022320473 11.9405009451 5.59629123065e-18)
(52.7854657613 11.7726373627 1.95691522005e-18)
(51.4635860928 11.5166381359 1.98079225803e-18)
(52.8344422704 11.424619827 -1.64811806672e-18)
(51.5502874777 11.1163022897 -1.37565149771e-18)
(52.9046381271 11.0934484779 -1.17355828718e-18)
(51.660300135 10.7396781802 1.62593740346e-18)
(51.7975863905 10.3882969656 -3.16777697452e-18)
(52.9969556426 10.7786226941 3.38029436888e-18)
(50.475677549 16.6102495391 -2.0680665714e-17)
(48.2636299772 17.2125931333 5.10578414401e-20)
(50.276229157 15.9391640089 2.84712996133e-18)
(48.1189362728 16.4081509292 -1.45127500382e-17)
(50.1218342466 15.2824868649 1.80084804763e-17)
(48.0233804781 15.6272445377 1.74434119784e-17)
(50.0099262869 14.6428634809 -2.22002418284e-17)
(47.9752019692 14.8708510304 7.87235393105e-18)
(49.9379960733 14.0230463301 -1.56622528432e-17)
(47.9729209779 14.1409543062 -2.62216737347e-17)
(49.9040300776 13.4256137272 1.87862310451e-17)
(48.0154032545 13.4372856186 7.27740597567e-18)
(49.9058658515 12.8527208132 4.58216981147e-18)
(48.1022986367 12.7639394542 1.45966818637e-17)
(49.9410390103 12.3061982315 -1.44958925531e-17)
(48.2324830386 12.1251824587 -9.77698366959e-18)
(50.0070746932 11.7877148169 -3.30033894483e-18)
(48.4038476812 11.5217337926 -8.54457695026e-18)
(50.1018519439 11.2992486004 3.62736170465e-18)
(48.6167989159 10.9519173793 3.83538513307e-18)
(50.2235502534 10.8420018052 -1.35993114756e-18)
(48.8666208844 10.4141483259 6.84649757022e-19)
(50.3712766132 10.416949584 1.90605586557e-18)
(49.1523446385 9.90404289505 -6.22602405461e-20)
(50.5440362781 10.0247575968 -3.58824140688e-19)
(49.4652416832 9.42215853147 3.35686033573e-18)
(49.7979098454 8.96009129775 -2.18637513337e-18)
(50.7457697305 9.66029636709 -5.09109004091e-18)
(45.8788615567 17.0961734044 6.29465445803e-18)
(42.4145569902 16.5105183589 2.67395654544e-17)
(45.8385437467 16.1787281331 4.36972724404e-20)
(42.5364758428 15.4759979829 -2.35239921586e-17)
(45.8499944503 15.2944188254 7.27394036048e-18)
(42.7059193572 14.4687876127 -9.19583329709e-18)
(45.9126220045 14.4435411056 3.94590937181e-18)
(42.9211214197 13.4868722833 1.69873978288e-17)
(46.026533605 13.6249050094 -3.26737364633e-18)
(43.1799337031 12.5289783205 1.12893586404e-18)
(46.1921479354 12.8398640874 3.03757091281e-18)
(43.479352161 11.5937886743 4.90955833658e-18)
(46.4091906325 12.0949471766 2.40776491833e-19)
(43.8146445434 10.6879058232 1.44593083027e-18)
(46.6772442049 11.3937198409 -3.79442181667e-18)
(44.1844929939 9.8151535659 -4.93638166031e-18)
(46.9944795531 10.7328661746 -1.41113024019e-18)
(44.5815589122 8.98327113134 -2.83926964086e-18)
(47.3583304206 10.1068099565 8.8605155883e-19)
(45.0048090446 8.19492958863 1.17274883351e-18)
(47.7642586051 9.50940130767 1.98880423514e-18)
(45.4390417236 7.45884844386 3.70606055361e-19)
(48.2063078024 8.93302217473 1.37681601465e-18)
(45.8694141167 6.77717497883 -4.87106263718e-19)
(48.6786932947 8.37192917285 1.53656746407e-18)
(46.2986711083 6.1551086515 1.75969635e-18)
(46.7378796035 5.609499781 2.64929565977e-18)
(49.1781380564 7.8211485822 8.0774127182e-19)
(39.1575917269 14.8298917313 -2.9795755918e-18)
(39.4848569179 13.7167525971 -3.24761983006e-17)
(36.3018857635 12.1985129677 -8.85718103009e-18)
(39.8538550384 12.6222419022 5.68025251716e-19)
(36.7819066789 11.0405476013 -3.27604637375e-18)
(40.2615495859 11.5434011598 1.40753877041e-17)
(37.2541203629 9.91245629522 3.27120184219e-18)
(40.702201251 10.4801399851 9.17308222441e-18)
(37.6991588721 8.82735096049 -8.3408398355e-18)
(41.167995496 9.43573042619 3.31780157476e-18)
(38.1026260432 7.79572561135 4.61675697052e-18)
(41.6495008878 8.41389033442 -3.68033447058e-18)
(38.4516048897 6.83068821367 -5.40362351245e-18)
(42.1350418047 7.42364123506 -3.97658576541e-18)
(38.7427211405 5.9484349291 4.31274632132e-19)
(42.6131710209 6.47834440471 -2.7060542057e-19)
(38.948331701 5.15259893247 -2.40266914511e-18)
(43.0775720082 5.59152000535 6.60189223664e-19)
(39.0608128431 4.41756308476 -2.7349517973e-19)
(43.5256543288 4.78362411062 -2.05965949868e-18)
(39.1241505446 3.74494816899 1.66537164177e-18)
(43.9538546942 4.07858603853 -9.39137437994e-20)
(39.1695598038 3.15238247038 7.00033772094e-19)
(44.3651520076 3.495034889 2.84872957751e-18)
(39.2190385236 2.61719748583 -3.72546162978e-19)
(44.7857749826 3.02479221696 4.13672411785e-18)
(39.3461617729 2.11096294665 4.81520759515e-19)
(52.9443395971 0.357600483116 -2.17488302833e-18)
(53.0335711921 0.789440598376 -2.01994580275e-18)
(52.8497323384 0.361262554729 5.78536721535e-18)
(52.9400719031 0.796494183815 8.91887080503e-19)
(52.7518446646 0.364938805785 4.44303818957e-18)
(52.8433082439 0.803592797167 6.97073587529e-18)
(52.6505620736 0.368640243697 -5.80193716067e-18)
(52.7432199562 0.810764954302 -2.63924192496e-18)
(52.5457667763 0.372368389934 -4.11826248619e-18)
(52.6396697266 0.818013681372 -7.0730805768e-18)
(52.4373378489 0.376125068036 3.9757721935e-20)
(52.5325330115 0.825338328273 3.73291848128e-20)
(52.3251509338 0.379908828375 1.84604046904e-18)
(52.4216901765 0.83273792867 -3.50315879375e-18)
(52.2090774437 0.383712827721 2.00131814043e-18)
(52.3070140579 0.840204690083 1.6699735992e-18)
(52.0889817495 0.387530478893 1.99361534872e-21)
(52.1883698476 0.847726581264 3.96311388793e-18)
(51.9647244425 0.391357799449 1.03230102206e-21)
(52.0656176692 0.855294545926 7.6700414193e-19)
(51.836164377 0.395190290485 -1.62453563219e-18)
(51.9386145955 0.862900096835 1.92207024005e-18)
(51.7031568102 0.399022597315 -3.34929425221e-18)
(51.8072156375 0.870533308347 -2.54189603339e-18)
(51.5655533333 0.402849640929 2.19855304486e-18)
(51.6712720593 0.87818439688 -6.4368456755e-18)
(51.4232029729 0.406668372469 5.85890427581e-18)
(51.5306318316 0.885846515033 6.3645341679e-19)
(51.2759538285 0.410475440426 -5.50933101246e-19)
(51.3851404746 0.893517600597 8.16610418604e-18)
(51.1236484756 0.414260435263 -3.49094018115e-19)
(51.2346388303 0.901185764967 -2.03869931723e-18)
(50.9661216624 0.418008772398 2.322988732e-18)
(51.0789602037 0.908825070229 -1.00739780107e-18)
(50.8032068458 0.421707536621 -2.15546558118e-18)
(50.9179327909 0.916411224293 5.95572724793e-18)
(50.6347381805 0.425343194797 -6.22126170391e-18)
(50.7513841707 0.923920720867 -5.43272894433e-19)
(50.4605489716 0.428901022715 -4.20120517492e-18)
(50.5791422028 0.93132636981 -6.88012499633e-18)
(50.2804735201 0.432368331031 3.89663747705e-18)
(50.4010345489 0.938604117078 5.15299750536e-19)
(50.0943497618 0.435731815215 5.46128197676e-18)
(50.2168893461 0.945734796959 4.18011672673e-18)
(49.9020191456 0.438968649872 1.33313207421e-18)
(50.0265357466 0.952689383572 4.37562752035e-19)
(49.7033215894 0.442046125087 -2.41146232335e-18)
(49.8298024691 0.959416327396 6.86300943394e-20)