/*--------------------------------*- C++ -*----------------------------------*\
  =========                 |
  \\      /  F ield         | OpenFOAM: The Open Source CFD Toolbox
   \\    /   O peration     | Website:  https://openfoam.org
    \\  /    A nd           | Version:  7
     \\/     M anipulation  |
\*---------------------------------------------------------------------------*/
FoamFile
{
    version     2.0;
    format      ascii;
    class       volScalarField::Internal;
    location    "1";
    object      V0;
}
// * * * * * * * * * * * * * * * * * * * * * * * * * * * * * * * * * * * * * //

dimensions      [0 3 0 0 0 0 0];

value           nonuniform List<scalar> 
7540
(
0.0152031877938
0.0152349961046
0.0152667167773
0.0152984957222
0.0153299388302
0.0153610190549
0.0153917251491
0.0154220477492
0.0154519769408
0.0154814652777
0.0155103898535
0.0155390254857
0.0155677155921
0.0156061450668
0.0149869438042
0.0150169036283
0.0150464860066
0.0150759246376
0.0151050920886
0.015133979184
0.0151625761619
0.0151908731732
0.0152188329931
0.0152463988809
0.0152736273724
0.0153007053985
0.0153276005335
0.0153641013588
0.0147216879724
0.0147493979089
0.0147765289219
0.0148034463098
0.0148301484858
0.0148566349382
0.0148828985592
0.0149089107305
0.0149346323125
0.0149601067797
0.0149854263313
0.0150105583207
0.0150353317069
0.0150697542678
0.0144894434927
0.0145153536964
0.0145406635191
0.0145657858883
0.0145907224174
0.0146155043847
0.0146401475651
0.0146645887951
0.0146888203837
0.014712895326
0.01473677176
0.0147603515155
0.0147835507694
0.0148166222124
0.0142888044257
0.0143134843699
0.0143376061237
0.014361567944
0.0143853561051
0.0144091820155
0.0144330897387
0.0144566891122
0.0144799524191
0.0145030174725
0.0145258136359
0.0145483177849
0.0145705059598
0.0146028891631
0.0141157409654
0.0141397556422
0.0141632726342
0.0141866683341
0.0142099426395
0.0142332899867
0.0142566718299
0.0142796541311
0.014302219214
0.0143245384628
0.0143465992838
0.0143684391897
0.0143900678353
0.0144223125558
0.0139668378327
0.0139906002219
0.0140139215033
0.0140371710789
0.0140603507159
0.0140834279895
0.0141063002085
0.0141288687436
0.0141511406614
0.0141731506025
0.0141949018771
0.0142166357859
0.0142383789297
0.0142710437811
0.0138396462629
0.0138635343273
0.0138870505005
0.0139105087555
0.0139338379373
0.0139569664331
0.013979853324
0.0140024865363
0.0140248735113
0.0140470286222
0.01406896728
0.0140908923698
0.0141127325875
0.0141459071073
0.0137326135988
0.0137570898632
0.0137811893864
0.0138051246498
0.0138288279288
0.0138522894525
0.0138755174774
0.0138985230813
0.0139213245174
0.0139439374427
0.013966339852
0.0139884646833
0.0140102164428
0.0140439794555
0.0136450753254
0.0136705057897
0.0136951844599
0.013719621626
0.0137438297446
0.0137678288349
0.0137916517615
0.0138153358196
0.0138388499483
0.0138621014859
0.0138849877022
0.0139074416221
0.0139294763259
0.0139641752242
0.013575631392
0.0136018857537
0.0136273472857
0.0136525889596
0.0136776365133
0.0137025123065
0.013727533599
0.0137526824027
0.0137772660525
0.0138011408388
0.0138245379772
0.0138474706115
0.0138700024438
0.0139059235679
0.0135230865905
0.013550348103
0.0135771734783
0.0136038338926
0.0136303602673
0.0136567519746
0.0136831819673
0.0137094724893
0.0137349461012
0.0137595990038
0.0137837538364
0.0138074411497
0.0138307462775
0.0138684467405
0.0134876016638
0.0135164439838
0.0135450243348
0.0135735917933
0.0136020773021
0.0136302446082
0.0136578779522
0.0136848948116
0.0137113076179
0.0137371738888
0.0137625527003
0.0137874983378
0.0138120393483
0.0138516295143
0.0134684085106
0.013499343161
0.0135304811446
0.0135618385693
0.0135924464335
0.0136220667979
0.0136510223688
0.0136794016214
0.0137072515129
0.0137346070443
0.0137617960604
0.0137887210666
0.0138146308761
0.0138556073188
0.013466498178
0.0135004653021
0.0135343221117
0.0135678724958
0.0136003320825
0.0136317769487
0.0136626776878
0.0136931243993
0.0137231754838
0.013752689164
0.013781635583
0.0138097247678
0.0138363669057
0.013878756482
0.0134823841886
0.0135195792544
0.0135554159596
0.0135904718436
0.0136249298149
0.0136589201899
0.0136925487122
0.0137262115902
0.0137596179508
0.013791450423
0.0138213671386
0.0138497627826
0.013876965624
0.013921108473
0.0135128460343
0.013552422403
0.0135908735619
0.0136289801211
0.0136669067017
0.0137047198695
0.0137421014066
0.0137787567249
0.0138141554645
0.0138473290543
0.0138783984454
0.0139079697823
0.0139364495844
0.013982867756
0.0135535125777
0.0135963544921
0.0136395071835
0.0136826336728
0.013725432231
0.013767427134
0.0138078547147
0.0138462115518
0.0138826358656
0.0139174273635
0.0139507040634
0.0139825003392
0.0140134807106
0.0140630466564
0.0135950221232
0.013641309746
0.0136880323459
0.0137346641529
0.0137806751977
0.0138253092563
0.0138680255079
0.0139092077045
0.0139492853919
0.0139879579894
0.0140246875687
0.0140585960277
0.014090112396
0.0141402475475
0.0133182327578
0.0133570882413
0.0133962786319
0.0134356614372
0.0134754446944
0.0135156971489
0.0135557106952
0.0135947041234
0.0136320823179
0.0136677619815
0.0137015705925
0.0137324093802
0.0137606784639
0.0138086050005
0.011539650113
0.0118762551751
0.0122097796086
0.0125526859532
0.012905234718
0.0132677995843
0.0136406925751
0.0140241603248
0.0144187595683
0.0148246928203
0.0152419545888
0.0156708095451
0.016111537336
0.0165643971393
0.017029620661
0.01750778174
0.0179995314404
0.0185048866731
0.0190237853756
0.0195564634954
0.0201031852874
0.020664276908
0.0212400995098
0.0218313208546
0.0224385052526
0.0230613367316
0.0236994618944
0.0243529681522
0.0250219592954
0.0257065262581
0.0264067402839
0.0271226510241
0.027854283067
0.0286016337683
0.0293646727929
0.03014334115
0.0309375512539
0.0317471865012
0.0325718643383
0.0334113560496
0.0342659312212
0.0351354896568
0.0360196396934
0.0369181496601
0.0378307682009
0.0387572326599
0.0396972692208
0.0406506132304
0.0416170099682
0.0425961881256
0.0435878915813
0.0445918902793
0.0456079647595
0.0466359140948
0.0476755577553
0.0487267355879
0.0497893068626
0.050863147486
0.0519481457716
0.0530441955454
0.0541511875197
0.0552689974401
0.0563974714379
0.05753640811
0.0586855365587
0.0598444906059
0.0610127780102
0.0621897451873
0.0633745357146
0.0645660434474
0.0657628587646
0.0669632081753
0.0681648868809
0.0693651834268
0.0705607979662
0.0717477528649
0.0729212986877
0.074075818554
0.075204638127
0.0762783584616
0.0113595261114
0.0116901957148
0.0120177470574
0.0123545034223
0.0127006951848
0.0130567336808
0.0134229961977
0.0137996072504
0.0141868771739
0.0145851070068
0.0149944882113
0.0154153025818
0.0158478141556
0.0162922851599
0.0167490592346
0.0172185770051
0.0177011742808
0.0181969867578
0.0187061904887
0.0192290724569
0.0197659530234
0.0203170608198
0.0208825696166
0.0214630885855
0.0220591525241
0.0226705915938
0.0232972834366
0.0239394004937
0.0245970957763
0.0252705037692
0.0259597409647
0.0266649036399
0.0273860669746
0.0281232836131
0.0288765832204
0.029645971451
0.0304314299644
0.0312329161681
0.0320501287727
0.0328829089178
0.0337315700025
0.0345960583582
0.0354760474921
0.036371376835
0.037281863964
0.0382073102553
0.0391475036352
0.0401022274971
0.0410712625363
0.0420543787875
0.0430513486166
0.0440619523935
0.0450859746777
0.046123207579
0.0471734525365
0.0482365204105
0.049312230849
0.0504004100386
0.0515008872137
0.0526134886953
0.0537380303552
0.0548743069897
0.05602207899
0.0571810557873
0.0583508752629
0.0595310792814
0.0607210841297
0.0619201463085
0.0631273219175
0.0643414204155
0.0655609512459
0.066784063538
0.0680084784551
0.0692314132716
0.0704494985216
0.0716586865102
0.0728541535787
0.0740301998811
0.0751800570977
0.0762735813134
0.0111404194327
0.0114640237895
0.011784341836
0.0121136169889
0.0124521764733
0.0128004360274
0.013158649842
0.0135269464901
0.0139055627603
0.0142947975894
0.0146949372906
0.0151062530419
0.0155290108303
0.0159635494202
0.0164102311055
0.0168693163181
0.0173410118685
0.0178255744082
0.0183233130998
0.0188345751128
0.0193596926947
0.0198987389542
0.0204518572942
0.0210196425892
0.0216024471688
0.0222002745077
0.0228132699859
0.0234416582826
0.0240856410968
0.0247454021244
0.0254211096886
0.0261129154126
0.0268209545748
0.0275453451163
0.0282861872372
0.0290435622798
0.0298175325386
0.030608140751
0.0314151767947
0.0322385722248
0.0330787188122
0.0339356343478
0.0348090728499
0.035698963477
0.0366052135285
0.0375277111395
0.0384663282082
0.039420922382
0.0403913386984
0.0413774107216
0.0423789628093
0.0433958119845
0.0444277696445
0.0454746420741
0.0465362316855
0.0476123368265
0.0487027511174
0.049807261448
0.0509256449994
0.0520576640638
0.0532030595256
0.0543615414687
0.0555327772476
0.0567163764516
0.0579118718933
0.0591186967096
0.0603361562899
0.0615633953976
0.0627993586648
0.0640427451681
0.0652919555407
0.0665450318013
0.0677995894735
0.0690527410479
0.0703010118734
0.0715402457958
0.0727655003882
0.0739709322553
0.0751495862634
0.0762705159197
0.0109519237183
0.0112697445294
0.0115840849445
0.011907182229
0.0122393931964
0.0125810935752
0.0129324422547
0.0132936472883
0.0136649704526
0.0140467185183
0.0144391968012
0.0148426420725
0.0152573468854
0.0156836550662
0.0161218171929
0.0165720415201
0.0170345836277
0.0175097455514
0.0179978656025
0.018499270337
0.0190142134157
0.0195428520142
0.020085519458
0.0206426780248
0.0212144669207
0.0218009799424
0.022402481224
0.0230192236113
0.0236514444091
0.024299367552
0.024963203907
0.0256431511094
0.0263393939301
0.0270521035295
0.0277814372973
0.0285275378627
0.0292905328623
0.0300705342296
0.0308674041011
0.0316811540806
0.0325122606813
0.0333608166299
0.0342266504112
0.0351097747044
0.036010182378
0.0369278473843
0.0378627263749
0.0388147591475
0.0397838691541
0.0407699640142
0.0417729360684
0.0427926626773
0.0438290071277
0.0448818181332
0.0459509301671
0.0470361625505
0.0481373182613
0.049254181624
0.0503865152561
0.0515340550597
0.0526965041072
0.0538735238844
0.0550647231946
0.0562696441165
0.0574877441001
0.0587183742184
0.0599607522246
0.0612139306937
0.0624767583527
0.0637478352307
0.0650254600382
0.0663075699553
0.0675916724824
0.0688747685667
0.0701532681446
0.0714228944329
0.0726785714877
0.0739142783079
0.0751227483902
0.0762718062268
0.0107927333801
0.0111060245413
0.0114154792469
0.0117335805044
0.0120605927925
0.012396835279
0.0127425149435
0.013097886843
0.0134631965414
0.0138388693608
0.0142252539195
0.0146223586133
0.0150304449153
0.0154498996024
0.0158809343728
0.0163238076858
0.0167788192313
0.017246303005
0.0177265883089
0.0182198698165
0.0187263324636
0.0192463224057
0.0197801873896
0.0203281939009
0.0208905284435
0.0214673955727
0.0220590718306
0.0226658199245
0.0232878910284
0.0239255284189
0.0245789671754
0.0252484338895
0.0259341466608
0.0266363143073
0.027355136264
0.0280908016551
0.0288434890737
0.0296133658423
0.0304003523223
0.0312045260038
0.032026437719
0.0328662495144
0.0337238592394
0.0345993571021
0.0354928162782
0.0364042928651
0.0373338267491
0.0382814411264
0.0392471420384
0.0402309178787
0.041232738828
0.0422525560049
0.0432903012611
0.0443458856169
0.0454191985741
0.046510106284
0.0476184495542
0.0487440408876
0.0498866609473
0.0510460532621
0.0522219180188
0.0534139034174
0.0546215948715
0.0558445014234
0.0570820384213
0.0583335064143
0.0595980648505
0.0608747007659
0.0621621904869
0.0634590548825
0.0647635065259
0.0660733889577
0.0673861078911
0.0686985541039
0.070007020254
0.0713071092924
0.0725936258306
0.0738604006775
0.075099773822
0.0762776019705
0.0106581642398
0.0109680014009
0.0112734067748
0.0115873667046
0.0119101355285
0.0122419744225
0.0125831381893
0.0129338688943
0.0132944051157
0.0136651879936
0.0140465163975
0.0144383375323
0.0148408960702
0.0152545932506
0.0156796916524
0.0161164850113
0.0165652984171
0.0170264591804
0.0175002185803
0.0179866117683
0.0184858628522
0.0189985593875
0.0195249410078
0.0200650966134
0.0206193117795
0.0211878618125
0.0217710198626
0.0223690495072
0.0229822083629
0.0236107497948
0.0242549233012
0.0249149741164
0.0255911431707
0.0262836663918
0.0269927747158
0.0277186932817
0.0284616413023
0.0292218313967
0.0299992320408
0.0307939747984
0.0316066734607
0.032437552819
0.033286575011
0.0341539015727
0.0350396802985
0.0359440446482
0.0368671142457
0.037808993746
0.0387697716299
0.0397495188932
0.0407482875948
0.0417661090688
0.0428029927427
0.0438589235987
0.0449338605127
0.0460277334933
0.0471404408187
0.0482718452977
0.0494217700619
0.0505899927378
0.0517762388443
0.0529801729082
0.0542013875723
0.0554393900448
0.0566935849085
0.05796325319
0.0592475262042
0.0605453542681
0.0618554682074
0.0631763340729
0.0645060993401
0.065842530757
0.0671829438581
0.068524124652
0.0698622481519
0.0711927983884
0.0725104971446
0.0738091985339
0.0750811733102
0.0762888815769
0.0105452663291
0.0108523880826
0.0111544579239
0.0114649647399
0.011784196996
0.0121124212486
0.012449897107
0.0127968359037
0.0131535051832
0.0135202239162
0.0138971865814
0.014284544347
0.0146825607232
0.0150915371213
0.0155117577998
0.0159435283126
0.0163871549614
0.016842872523
0.0173108901398
0.0177913539241
0.0182845952077
0.0187911325731
0.0193111100434
0.0198445942953
0.0203918691842
0.0209532209608
0.021528923233
0.0221192436078
0.0227244472026
0.0233447971326
0.0239805551971
0.0246319818035
0.0252993362805
0.025982876528
0.0266828593373
0.0273995398628
0.0281331717087
0.0288840064326
0.02965205463
0.030437493352
0.0312409889297
0.0320628235926
0.0329030202367
0.0337618060294
0.034639397801
0.0355360011819
0.0364518110115
0.0373870097449
0.038341765704
0.0393162311509
0.0403105401549
0.0413248060697
0.0423591195655
0.0434135452872
0.0444881193645
0.0455828458347
0.0466976929835
0.0478325888551
0.0489874163535
0.0501620068073
0.0513561328484
0.0525694991132
0.0538017310304
0.0550523610328
0.0563208111789
0.057606372027
0.0589081762064
0.0602251666654
0.0615560574004
0.0628992869239
0.0642529625878
0.0656147957701
0.0669820278455
0.0683513476421
0.0697188067562
0.0710797464474
0.0724287864227
0.0737600287901
0.0750677171578
0.0763088449431
0.0104517007834
0.0107567298624
0.0110560848932
0.0113637947432
0.0116801336945
0.012005502358
0.012340197855
0.0126841532937
0.0130376086625
0.0134009495717
0.0137743605711
0.0141580708103
0.0145523443467
0.0149574526357
0.015373683506
0.0158013254304
0.0162405989172
0.0166916978836
0.0171549032688
0.0176305011964
0.018118733828
0.0186198298227
0.0191339782203
0.0196614050575
0.0202023855033
0.0207571887748
0.0213260795312
0.0219093220606
0.0225071815537
0.0231199245075
0.023747819378
0.0243911366541
0.0250501493792
0.0257251330325
0.0264163660768
0.02712412965
0.0278487078316
0.0285903872816
0.0293492181814
0.0301254174304
0.0309196942378
0.0317323842481
0.032563569298
0.0334135371295
0.0342825683417
0.0351709354994
0.036078903676
0.0370067285475
0.037954654255
0.0389229110314
0.0399117125695
0.040921252959
0.0419517041321
0.0430032119175
0.0440758929146
0.045169830279
0.0462850694244
0.0474216129123
0.0485794149585
0.049758374451
0.0509583273258
0.052179036827
0.0534201819027
0.0546813430579
0.0559619846173
0.0572614331768
0.0585788506002
0.0599132014131
0.0612632122394
0.062627323335
0.064003630106
0.0653898143181
0.0667830644177
0.0681799845136
0.0695764954523
0.070967735404
0.0723480036661
0.0737109332167
0.0750503999853
0.0763292395428
0.0103753389256
0.0106790216909
0.0109763931031
0.0112820712942
0.0115963119797
0.0119195143032
0.0122519572203
0.0125935284866
0.0129444368167
0.0133050665071
0.0136756462832
0.0140564331206
0.0144476863107
0.0148496721078
0.0152626546421
0.0156868403313
0.0161224111224
0.0165696373226
0.0170288113782
0.0175001073738
0.0179836738158
0.0184797470277
0.0189885927346
0.019510468771
0.0200456326342
0.0205943399101
0.021156847645
0.0217334158218
0.0223243082603
0.0229297931456
0.0235501438521
0.0241856392454
0.0248365644357
0.0255032109002
0.0261858772677
0.0268848692591
0.027600500194
0.028333090857
0.0290827326069
0.0298496804558
0.0306346778437
0.0314381103026
0.0322601174704
0.0331010425763
0.0339612247952
0.0348409983899
0.0357406934869
0.0366606339183
0.0376011347935
0.038562499805
0.0395450182522
0.0405489616136
0.0415745805999
0.0426221008092
0.0436917191767
0.0447835993322
0.0458978668667
0.0470346037916
0.048193842623
0.0493755589986
0.0505796636743
0.0518059924335
0.053054294149
0.0543242162994
0.0556152868533
0.0569268922247
0.0582582495538
0.0596083730016
0.0609760315085
0.0623596978129
0.0637574863454
0.0651670794013
0.0665856405403
0.0680097133126
0.0694351030688
0.0708567283709
0.0722684160202
0.0736626072032
0.0750298162565
0.0763452040571
0.0103152839485
0.0106182057256
0.0109142190284
0.0112186450978
0.011531462748
0.011852904852
0.0121833342544
0.0125228928899
0.0128718053956
0.0132303290136
0.013598731864
0.0139772959102
0.0143662422498
0.0147657676307
0.0151760658357
0.0155972825702
0.0160296181448
0.0164733917166
0.0169288314527
0.0173960647372
0.0178752987642
0.0183667752009
0.0188707360448
0.0193874283512
0.019917097776
0.0204599920807
0.0210163632392
0.0215864688076
0.0221705729679
0.0227689471952
0.0233818712716
0.0240096337849
0.024652533072
0.0253108775433
0.0259849867031
0.0266751914154
0.0273818348739
0.0281052731068
0.028845645818
0.0296032543518
0.0303788725714
0.0311729276178
0.0319856097538
0.0328173109508
0.0336684243242
0.0345393409647
0.0354304510214
0.0363421413181
0.0372747926931
0.0382287770858
0.0392044543511
0.0402021686322
0.0412222452119
0.0422649859747
0.0433306656504
0.0444195269682
0.045531775712
0.0466675749694
0.0478270390073
0.0490102256927
0.0502171283
0.0514476652479
0.0527016679914
0.0539788663485
0.0552788701303
0.056601146694
0.0579449925433
0.0593094984656
0.0606935053943
0.0620955504568
0.0635138004977
0.0649459722817
0.0663892385117
0.0678401184041
0.0692943500078
0.0707467186513
0.0721907496317
0.0736180193714
0.0750169438067
0.0763644880492
0.0102711662846
0.0105739620212
0.0108690162616
0.0111723986473
0.0114840807966
0.0118042523288
0.0121332828933
0.0124713751053
0.0128187608436
0.0131756670212
0.0135425345077
0.0139196488367
0.01430680684
0.0147041315569
0.0151119986675
0.0155304035277
0.015959539718
0.016400025308
0.0168520312582
0.0173155133964
0.0177906893463
0.0182777866083
0.0187770409297
0.0192886861336
0.0198129583175
0.0203500996167
0.0209003594481
0.0214639958819
0.0220412766278
0.0226324797398
0.0232378946672
0.023857822761
0.0244925781854
0.0251424882035
0.0258078942261
0.0264891524071
0.0271866357895
0.027900737283
0.0286316612302
0.0293797812976
0.0301459020961
0.0309304740922
0.0317337215634
0.0325560725333
0.0333979688436
0.034259854697
0.0351421761526
0.036045378385
0.0369699028264
0.0379161841599
0.0388846471035
0.039875702787
0.0408897456214
0.0419271487924
0.0429882605271
0.0440733992733
0.0451828487724
0.0463168523286
0.047475606703
0.048659254567
0.0498678763519
0.0511014800485
0.0523599891711
0.0536432281468
0.0549509039539
0.0562825835346
0.0576376649575
0.0590153415668
0.0604145559544
0.0618339427262
0.0632717568288
0.0647257863248
0.0661932494403
0.0676706782011
0.0691537962926
0.0706373871151
0.0721150610227
0.0735783092305
0.0750130353203
0.0763900542625
0.0102425943498
0.01054596663
0.0108403716472
0.0111428413275
0.011453657158
0.0117730227803
0.0121011667526
0.0124383255339
0.0127847455937
0.0131406024928
0.0135062427083
0.013881833651
0.0142671198227
0.0146622998198
0.0150678484905
0.0154837746065
0.0159102339045
0.0163477514926
0.0167964236568
0.0172562151968
0.0177273399601
0.0182100224484
0.0187044860534
0.0192109567094
0.0197296671446
0.0202608592626
0.0208047852565
0.0213617089894
0.0219319070132
0.0225156692618
0.0231132999846
0.0237251179781
0.0243514569655
0.0249926649169
0.0256491033201
0.0263211444418
0.0270091670054
0.027713546535
0.0284346561873
0.0291731975843
0.0299298704534
0.0307049364952
0.03149870109
0.032311638744
0.0331442425109
0.0339970104822
0.0348704425693
0.0357650382688
0.0366812942617
0.0376197018103
0.0385807438943
0.0395648919024
0.0405726027766
0.0416043147696
0.0426604439479
0.0437413796025
0.0448474795459
0.0459790646073
0.0471364127607
0.0483197518356
0.0495292516494
0.050765014133
0.0520270616625
0.0533153228467
0.0546296145613
0.0559696196599
0.0573348581784
0.0587246509661
0.0601380721122
0.0615738884132
0.0630304816722
0.06450575166
0.065996999292
0.0675007956542
0.0690128609238
0.0705280139464
0.0720403381752
0.0735435371134
0.0750209529168
0.0764261060117
0.0102288246828
0.0105330497885
0.0108272722298
0.0111294321879
0.0114398902891
0.0117588614845
0.0120865400415
0.01242333432
0.012769471091
0.0131246582226
0.0134889870308
0.0138627800244
0.0142461612117
0.0146395944625
0.0150433759344
0.0154571898708
0.0158811000567
0.0163154645759
0.0167604150446
0.0172161303519
0.0176828145296
0.0181606733549
0.0186499177326
0.0191507681683
0.0196634567718
0.0201882289679
0.0207253444581
0.0212750784926
0.0218377227871
0.0224135861068
0.0230029951053
0.0236062945245
0.0242238476895
0.0248560362328
0.0255032603192
0.0261659379287
0.0268445038601
0.0275392199808
0.0282502777231
0.0289787925743
0.0297257537814
0.0304911902511
0.0312753718305
0.032078831494
0.0329021077488
0.0337457437947
0.0346102841307
0.0354962732615
0.0364042539539
0.0373347651297
0.0382883394141
0.0392655001992
0.04026675914
0.0412926122651
0.0423435368256
0.0434199870632
0.0445223898701
0.0456511396679
0.0468065929434
0.0479890614131
0.0491988046645
0.0504360208737
0.0517008358262
0.0529932895
0.0543133189911
0.0556607371414
0.057035204533
0.0584361934623
0.0598629396958
0.0613143792749
0.0627890645529
0.064285054855
0.0657997782463
0.067329867196
0.0688709922074
0.0704177786458
0.071964191757
0.0735060454056
0.0750280630855
0.0764659432025
0.0102299860795
0.0105353147361
0.0108298192552
0.0111321766182
0.0114428147281
0.0117619482831
0.0120896826622
0.012426303429
0.0127719542354
0.0131263288976
0.0134895674492
0.0138620586954
0.0142439710094
0.0146356834109
0.0150372705874
0.0154483281855
0.0158689695835
0.0162995942446
0.0167403921637
0.0171915482378
0.017653251274
0.0181256985919
0.0186091002102
0.0191036811302
0.0196096825714
0.0201273633542
0.0206570005552
0.0211988904549
0.0217533491068
0.0223207125718
0.022901337445
0.0234956008499
0.0241039009216
0.0247266568364
0.0253643097411
0.0260173229477
0.0266861828303
0.0273712879116
0.0280728265586
0.028791567359
0.0295285489494
0.0302841355351
0.0310586525182
0.0318526442256
0.032666666012
0.0335012839951
0.0343570706031
0.0352346019542
0.0361344554693
0.0370572075251
0.0380034310229
0.0389736926371
0.0399685505926
0.0409885511285
0.0420342257374
0.0431060873589
0.0442046264974
0.0453303065945
0.0464835591068
0.0476647772841
0.0488743095148
0.0501124508835
0.0513794332021
0.0526754128202
0.0540004550195
0.0553545143403
0.0567374083982
0.0581487835232
0.0595880674503
0.0610544052353
0.0625465704466
0.0640628429799
0.0656008437907
0.0671573202426
0.0687278834685
0.0703066787735
0.0718858930739
0.0734553831227
0.0750106854206
0.0764932959934
0.010245571415
0.0105525376015
0.0108477327598
0.0111507104619
0.0114620647055
0.0117819040916
0.0121098854569
0.0124460759066
0.0127907987517
0.0131441759106
0.0135063739975
0.0138775339132
0.0142577358749
0.0146470253362
0.015045393669
0.01545290167
0.0158697345674
0.0162960778724
0.016732104245
0.0171779941254
0.0176339403444
0.0181001516891
0.0185768548617
0.0190642958767
0.0195627408142
0.0200724767002
0.0205938116095
0.0211270749988
0.0216726176036
0.0222308109562
0.0228020471645
0.0233867381915
0.0239853158546
0.0245982321269
0.0252259628738
0.0258690011428
0.0265277692595
0.0272027164323
0.0278946404633
0.0286042233907
0.0293318367346
0.0300779700144
0.0308431843818
0.0316280538212
0.0324331633588
0.0332591063613
0.0341064821927
0.0349758944254
0.0358679491679
0.0367832533379
0.037722412795
0.038686030121
0.0396747029012
0.040689020694
0.0417295627673
0.0427968948102
0.0438915655894
0.0450141029059
0.0461650093125
0.0473447566241
0.0485537801203
0.0497924711484
0.0510611684596
0.0523601476705
0.0536896077485
0.055049653935
0.0564402746716
0.0578613106882
0.0593124110195
0.0607929713326
0.0623020445148
0.0638382090361
0.065399376074
0.0669825210263
0.0685833429258
0.0701958281037
0.0718110734409
0.073412076228
0.0749984117655
0.0765210599422
0.0102754476072
0.0105846161459
0.0108811347836
0.0111853447622
0.0114973775232
0.0118172896776
0.0121449856405
0.0124805968973
0.0128244804998
0.0131767870615
0.0135375547845
0.0139067157785
0.0142842600864
0.0146702318788
0.015064727361
0.0154678818574
0.0158798442951
0.0163007766605
0.0167308555787
0.0171702760426
0.0176192536197
0.0180780258738
0.0185468530145
0.0190260183853
0.0195158283289
0.0200166121808
0.0205287214852
0.0210525294412
0.0215884298853
0.0221368357593
0.0226981774109
0.0232728992004
0.0238614549886
0.0244643015884
0.0250820046839
0.0257152095081
0.0263642171317
0.0270293993782
0.0277117752524
0.028412132124
0.0291307091541
0.0298679071573
0.0306243385007
0.0314006130294
0.0321973436721
0.0330151471855
0.0338546442953
0.0347164595477
0.0356012208413
0.0365095586344
0.0374421048394
0.0383994912568
0.0393823484372
0.0403913032028
0.0414269769166
0.0424899827427
0.0435809228808
0.0447003851485
0.0458489393892
0.0470271327749
0.0482354849503
0.0494744818181
0.0507445684092
0.0520461403704
0.0533795331388
0.0547450084007
0.0561427355864
0.0575727665653
0.0590349978582
0.0605291160868
0.0620545165785
0.0636101718639
0.0651944135085
0.0668045966365
0.0684366680539
0.0700849190337
0.0717432369499
0.0733918162576
0.0750132275873
0.0765604106069
0.0103199564629
0.0106321063275
0.0109298704899
0.0112346384572
0.0115466720037
0.0118660493734
0.0121930990933
0.0125279565308
0.0128708784994
0.013221834467
0.0135803010563
0.0139461753851
0.0143197193737
0.0147010381188
0.0150902622985
0.0154875399796
0.0158930350882
0.0163069326607
0.016729442428
0.0171608000948
0.0176012675096
0.0180511326054
0.0185107086802
0.0189803335906
0.0194603684366
0.019951196535
0.0204532218592
0.020966868087
0.0214925778347
0.0220308125587
0.0225820549999
0.0231468083227
0.0237255770523
0.0243187597231
0.0249266889267
0.0255500327757
0.0261895793186
0.0268459350854
0.0275196505286
0.0282111905082
0.0289210559435
0.0296498211245
0.0303980774083
0.0311664272895
0.03195548192
0.0327658607092
0.0335981905624
0.0344531053564
0.0353312454335
0.0362332569806
0.0371597912145
0.0381115031714
0.0390890509543
0.0400930936734
0.0411242901643
0.0421832967545
0.0432707650643
0.0443873392169
0.0455336529294
0.0467103255842
0.0479179583022
0.0491571289436
0.0504283866475
0.051732245625
0.053069177517
0.054439602241
0.0558438755697
0.0572822720548
0.0587549556647
0.0602619364093
0.0618030131102
0.063377665192
0.0649848207615
0.0666224290283
0.0682867371498
0.069971162849
0.0716657320674
0.0733540505665
0.0750143945613
0.0765968228287
0.010377401549
0.0106914391734
0.0109896488731
0.0112945176797
0.0116063884428
0.0119252413485
0.0122515909371
0.0125854069745
0.0129261730805
0.0132736858116
0.0136277486782
0.0139884272608
0.0143560557229
0.0147307613367
0.0151127031268
0.0155020659697
0.0158990646134
0.0163039450578
0.016716984387
0.0171384894396
0.0175687948299
0.0180082609157
0.0184572713185
0.0189162305767
0.0193855614865
0.0198657028595
0.0203571067278
0.0208602357724
0.0213755601202
0.0219035523252
0.0224447441317
0.0229998502081
0.0235694274781
0.0241536218811
0.0247527566865
0.0253674486221
0.0259984844501
0.0266465960513
0.0273122290134
0.0279958650797
0.0286980725628
0.0294194257012
0.0301605091516
0.0309219191259
0.031704262183
0.0325081554936
0.0333342265415
0.0341831129495
0.0350554622752
0.0359519316858
0.0368731874434
0.037819903987
0.0387927634603
0.0397924539589
0.040819668614
0.0418751038415
0.042959457735
0.0440734279293
0.0452177092997
0.0463929906409
0.0475999515113
0.0488392583437
0.0501115607124
0.0514174875986
0.0527576432156
0.0541326027876
0.0555429074609
0.0569890602959
0.0584715047233
0.0599905851339
0.0615465441884
0.0631394924513
0.0647691960646
0.06643461372
0.0681329923953
0.069857642754
0.0715913146628
0.073319022446
0.0750216624398
0.0766397505081
0.0104316896121
0.0107465062266
0.0110447663257
0.0113495895287
0.0116610316731
0.0119786727306
0.0123026392486
0.0126328363488
0.0129686318292
0.0133099514344
0.0136571434141
0.0140103439864
0.0143697199502
0.0147354660015
0.0151078175153
0.0154870499529
0.0158734768044
0.0162674458645
0.0166693352491
0.0170795491166
0.0174985133594
0.0179266718536
0.0183644828483
0.0188124160335
0.0192709498065
0.0197405695492
0.0202217666521
0.0207150409848
0.0212209055188
0.0217397999063
0.0222720813294
0.0228182952814
0.0233791702055
0.0239552553501
0.0245470827207
0.0251550183233
0.0257793446703
0.0264206974684
0.0270797268717
0.0277569819132
0.0284530161004
0.0291683928085
0.0299036869714
0.0306594858447
0.0314363891394
0.0322350097466
0.033055973842
0.033899921067
0.0347675046612
0.0356593914796
0.0365762617917
0.0375188085924
0.0384877372506
0.0394837638799
0.0405076146997
0.0415600248608
0.0426417376548
0.0437535032594
0.0448960767898
0.0460702150212
0.0472766736738
0.0485162042903
0.0497895524862
0.0510974567536
0.0524406476102
0.0538198481916
0.0552357748137
0.0566891628815
0.0581807507626
0.0597111786714
0.0612811053151
0.0628913917581
0.0645429081875
0.0662360980279
0.067970541535
0.0697446834272
0.0715314280186
0.0732927819762
0.0750231270264
0.0766799895588
0.0101842123731
0.0104923344724
0.0107829499762
0.0110791300858
0.011381327545
0.011689415299
0.0120033324051
0.0123228404501
0.0126477501151
0.0129781407369
0.0133141658684
0.0136560238596
0.0140039592566
0.0143582622472
0.0147192654863
0.0150873381635
0.0154628797299
0.0158463133031
0.0162380797473
0.0166386323708
0.0170484324278
0.0174679458909
0.0178976409431
0.0183379864371
0.0187894500551
0.0192524944117
0.0197275658008
0.0202151100029
0.020715675481
0.0212298310171
0.0217578700782
0.0222999589488
0.0228565784907
0.023428561425
0.024016532281
0.0246207700013
0.0252416567781
0.0258797083188
0.0265354527201
0.0272094259835
0.0279021722414
0.0286142461286
0.0293462149204
0.0300986602259