# vtk DataFile Version 4.0
vtk output
ASCII
DATASET UNSTRUCTURED_GRID
POINTS 604 float
5.5000000e+00 5.9700000e+00 0.0000000e+00 
5.5000000e+00 5.9900000e+00 0.0000000e+00 
5.5266667e+00 5.9700000e+00 0.0000000e+00 
5.5266667e+00 5.9900000e+00 0.0000000e+00 
5.5000000e+00 6.0100000e+00 0.0000000e+00 
5.5266667e+00 6.0100000e+00 0.0000000e+00 
5.5533333e+00 5.9700000e+00 0.0000000e+00 
5.5533333e+00 5.9900000e+00 0.0000000e+00 
5.5000000e+00 6.0300000e+00 0.0000000e+00 
5.5266667e+00 6.0300000e+00 0.0000000e+00 
5.5533333e+00 6.0100000e+00 0.0000000e+00 
5.5800000e+00 5.9700000e+00 0.0000000e+00 
5.5533333e+00 6.0300000e+00 0.0000000e+00 
5.5800000e+00 5.9900000e+00 0.0000000e+00 
5.5800000e+00 6.0100000e+00 0.0000000e+00 
5.5800000e+00 6.0300000e+00 0.0000000e+00 
5.6066667e+00 5.9700000e+00 0.0000000e+00 
5.6066667e+00 5.9900000e+00 0.0000000e+00 
5.6066667e+00 6.0100000e+00 0.0000000e+00 
5.6066667e+00 6.0300000e+00 0.0000000e+00 
5.6333333e+00 5.9700000e+00 0.0000000e+00 
5.6333333e+00 5.9900000e+00 0.0000000e+00 
5.6333333e+00 6.0100000e+00 0.0000000e+00 
5.6333333e+00 6.0300000e+00 0.0000000e+00 
5.6600000e+00 5.9700000e+00 0.0000000e+00 
5.6600000e+00 5.9900000e+00 0.0000000e+00 
5.6600000e+00 6.0100000e+00 0.0000000e+00 
5.6600000e+00 6.0300000e+00 0.0000000e+00 
5.6866667e+00 5.9700000e+00 0.0000000e+00 
5.6866667e+00 5.9900000e+00 0.0000000e+00 
5.6866667e+00 6.0100000e+00 0.0000000e+00 
5.6866667e+00 6.0300000e+00 0.0000000e+00 
5.7133333e+00 5.9700000e+00 0.0000000e+00 
5.7133333e+00 5.9900000e+00 0.0000000e+00 
5.7133333e+00 6.0100000e+00 0.0000000e+00 
5.7133333e+00 6.0300000e+00 0.0000000e+00 
5.7400000e+00 5.9700000e+00 0.0000000e+00 
5.7400000e+00 5.9900000e+00 0.0000000e+00 
5.7400000e+00 6.0100000e+00 0.0000000e+00 
5.7400000e+00 6.0300000e+00 0.0000000e+00 
5.7666667e+00 5.9700000e+00 0.0000000e+00 
5.7666667e+00 5.9900000e+00 0.0000000e+00 
5.7666667e+00 6.0100000e+00 0.0000000e+00 
5.7666667e+00 6.0300000e+00 0.0000000e+00 
5.7933333e+00 5.9700000e+00 0.0000000e+00 
5.7933333e+00 5.9900000e+00 0.0000000e+00 
5.7933333e+00 6.0100000e+00 0.0000000e+00 
5.7933333e+00 6.0300000e+00 0.0000000e+00 
5.8200000e+00 5.9700000e+00 0.0000000e+00 
5.8200000e+00 5.9900000e+00 0.0000000e+00 
5.8200000e+00 6.0100000e+00 0.0000000e+00 
5.8200000e+00 6.0300000e+00 0.0000000e+00 
5.8466667e+00 5.9700000e+00 0.0000000e+00 
5.8466667e+00 5.9900000e+00 0.0000000e+00 
5.8466667e+00 6.0100000e+00 0.0000000e+00 
5.8466667e+00 6.0300000e+00 0.0000000e+00 
5.8733333e+00 5.9700000e+00 0.0000000e+00 
5.8733333e+00 5.9900000e+00 0.0000000e+00 
5.8733333e+00 6.0100000e+00 0.0000000e+00 
5.8733333e+00 6.0300000e+00 0.0000000e+00 
5.9000000e+00 5.9700000e+00 0.0000000e+00 
5.9000000e+00 5.9900000e+00 0.0000000e+00 
5.9000000e+00 6.0100000e+00 0.0000000e+00 
5.9000000e+00 6.0300000e+00 0.0000000e+00 
5.9266667e+00 5.9700000e+00 0.0000000e+00 
5.9266667e+00 5.9900000e+00 0.0000000e+00 
5.9266667e+00 6.0100000e+00 0.0000000e+00 
5.9266667e+00 6.0300000e+00 0.0000000e+00 
5.9533333e+00 5.9700000e+00 0.0000000e+00 
5.9533333e+00 5.9900000e+00 0.0000000e+00 
5.9533333e+00 6.0100000e+00 0.0000000e+00 
5.9533333e+00 6.0300000e+00 0.0000000e+00 
5.9800000e+00 5.9700000e+00 0.0000000e+00 
5.9800000e+00 5.9900000e+00 0.0000000e+00 
5.9800000e+00 6.0100000e+00 0.0000000e+00 
5.9800000e+00 6.0300000e+00 0.0000000e+00 
6.0066667e+00 5.9700000e+00 0.0000000e+00 
6.0066667e+00 5.9900000e+00 0.0000000e+00 
6.0066667e+00 6.0100000e+00 0.0000000e+00 
6.0066667e+00 6.0300000e+00 0.0000000e+00 
6.0333333e+00 5.9700000e+00 0.0000000e+00 
6.0333333e+00 5.9900000e+00 0.0000000e+00 
6.0333333e+00 6.0100000e+00 0.0000000e+00 
6.0333333e+00 6.0300000e+00 0.0000000e+00 
6.0600000e+00 5.9700000e+00 0.0000000e+00 
6.0600000e+00 5.9900000e+00 0.0000000e+00 
6.0600000e+00 6.0100000e+00 0.0000000e+00 
6.0600000e+00 6.0300000e+00 0.0000000e+00 
6.0866667e+00 5.9700000e+00 0.0000000e+00 
6.0866667e+00 5.9900000e+00 0.0000000e+00 
6.0866667e+00 6.0100000e+00 0.0000000e+00 
6.0866667e+00 6.0300000e+00 0.0000000e+00 
6.1133333e+00 5.9700000e+00 0.0000000e+00 
6.1133333e+00 5.9900000e+00 0.0000000e+00 
6.1133333e+00 6.0100000e+00 0.0000000e+00 
6.1133333e+00 6.0300000e+00 0.0000000e+00 
6.1400000e+00 5.9700000e+00 0.0000000e+00 
6.1400000e+00 5.9900000e+00 0.0000000e+00 
6.1400000e+00 6.0100000e+00 0.0000000e+00 
6.1400000e+00 6.0300000e+00 0.0000000e+00 
6.1666667e+00 5.9700000e+00 0.0000000e+00 
6.1666667e+00 5.9900000e+00 0.0000000e+00 
6.1666667e+00 6.0100000e+00 0.0000000e+00 
6.1666667e+00 6.0300000e+00 0.0000000e+00 
6.1933333e+00 5.9700000e+00 0.0000000e+00 
6.1933333e+00 5.9900000e+00 0.0000000e+00 
6.1933333e+00 6.0100000e+00 0.0000000e+00 
6.1933333e+00 6.0300000e+00 0.0000000e+00 
6.2200000e+00 5.9700000e+00 0.0000000e+00 
6.2200000e+00 5.9900000e+00 0.0000000e+00 
6.2200000e+00 6.0100000e+00 0.0000000e+00 
6.2200000e+00 6.0300000e+00 0.0000000e+00 
6.2466667e+00 5.9700000e+00 0.0000000e+00 
6.2466667e+00 5.9900000e+00 0.0000000e+00 
6.2466667e+00 6.0100000e+00 0.0000000e+00 
6.2466667e+00 6.0300000e+00 0.0000000e+00 
6.2733333e+00 5.9700000e+00 0.0000000e+00 
6.2733333e+00 5.9900000e+00 0.0000000e+00 
6.2733333e+00 6.0100000e+00 0.0000000e+00 
6.2733333e+00 6.0300000e+00 0.0000000e+00 
6.3000000e+00 5.9700000e+00 0.0000000e+00 
6.3000000e+00 5.9900000e+00 0.0000000e+00 
6.3000000e+00 6.0100000e+00 0.0000000e+00 
6.3000000e+00 6.0300000e+00 0.0000000e+00 
6.3266667e+00 5.9700000e+00 0.0000000e+00 
6.3266667e+00 5.9900000e+00 0.0000000e+00 
6.3266667e+00 6.0100000e+00 0.0000000e+00 
6.3266667e+00 6.0300000e+00 0.0000000e+00 
6.3533333e+00 5.9700000e+00 0.0000000e+00 
6.3533333e+00 5.9900000e+00 0.0000000e+00 
6.3533333e+00 6.0100000e+00 0.0000000e+00 
6.3533333e+00 6.0300000e+00 0.0000000e+00 
6.3800000e+00 5.9700000e+00 0.0000000e+00 
6.3800000e+00 5.9900000e+00 0.0000000e+00 
6.3800000e+00 6.0100000e+00 0.0000000e+00 
6.3800000e+00 6.0300000e+00 0.0000000e+00 
6.4066667e+00 5.9700000e+00 0.0000000e+00 
6.4066667e+00 5.9900000e+00 0.0000000e+00 
6.4066667e+00 6.0100000e+00 0.0000000e+00 
6.4066667e+00 6.0300000e+00 0.0000000e+00 
6.4333333e+00 5.9700000e+00 0.0000000e+00 
6.4333333e+00 5.9900000e+00 0.0000000e+00 
6.4333333e+00 6.0100000e+00 0.0000000e+00 
6.4333333e+00 6.0300000e+00 0.0000000e+00 
6.4600000e+00 5.9700000e+00 0.0000000e+00 
6.4600000e+00 5.9900000e+00 0.0000000e+00 
6.4600000e+00 6.0100000e+00 0.0000000e+00 
6.4600000e+00 6.0300000e+00 0.0000000e+00 
6.4866667e+00 5.9700000e+00 0.0000000e+00 
6.4866667e+00 5.9900000e+00 0.0000000e+00 
6.4866667e+00 6.0100000e+00 0.0000000e+00 
6.4866667e+00 6.0300000e+00 0.0000000e+00 
6.5133333e+00 5.9700000e+00 0.0000000e+00 
6.5133333e+00 5.9900000e+00 0.0000000e+00 
6.5133333e+00 6.0100000e+00 0.0000000e+00 
6.5133333e+00 6.0300000e+00 0.0000000e+00 
6.5400000e+00 5.9700000e+00 0.0000000e+00 
6.5400000e+00 5.9900000e+00 0.0000000e+00 
6.5400000e+00 6.0100000e+00 0.0000000e+00 
6.5400000e+00 6.0300000e+00 0.0000000e+00 
6.5666667e+00 5.9700000e+00 0.0000000e+00 
6.5666667e+00 5.9900000e+00 0.0000000e+00 
6.5666667e+00 6.0100000e+00 0.0000000e+00 
6.5666667e+00 6.0300000e+00 0.0000000e+00 
6.5933333e+00 5.9700000e+00 0.0000000e+00 
6.5933333e+00 5.9900000e+00 0.0000000e+00 
6.5933333e+00 6.0100000e+00 0.0000000e+00 
6.5933333e+00 6.0300000e+00 0.0000000e+00 
6.6200000e+00 5.9700000e+00 0.0000000e+00 
6.6200000e+00 5.9900000e+00 0.0000000e+00 
6.6200000e+00 6.0100000e+00 0.0000000e+00 
6.6200000e+00 6.0300000e+00 0.0000000e+00 
6.6466667e+00 5.9700000e+00 0.0000000e+00 
6.6466667e+00 5.9900000e+00 0.0000000e+00 
6.6466667e+00 6.0100000e+00 0.0000000e+00 
6.6466667e+00 6.0300000e+00 0.0000000e+00 
6.6733333e+00 5.9700000e+00 0.0000000e+00 
6.6733333e+00 5.9900000e+00 0.0000000e+00 
6.6733333e+00 6.0100000e+00 0.0000000e+00 
6.6733333e+00 6.0300000e+00 0.0000000e+00 
6.7000000e+00 5.9700000e+00 0.0000000e+00 
6.7000000e+00 5.9900000e+00 0.0000000e+00 
6.7000000e+00 6.0100000e+00 0.0000000e+00 
6.7000000e+00 6.0300000e+00 0.0000000e+00 
6.7266667e+00 5.9700000e+00 0.0000000e+00 
6.7266667e+00 5.9900000e+00 0.0000000e+00 
6.7266667e+00 6.0100000e+00 0.0000000e+00 
6.7266667e+00 6.0300000e+00 0.0000000e+00 
6.7533333e+00 5.9700000e+00 0.0000000e+00 
6.7533333e+00 5.9900000e+00 0.0000000e+00 
6.7533333e+00 6.0100000e+00 0.0000000e+00 
6.7533333e+00 6.0300000e+00 0.0000000e+00 
6.7800000e+00 5.9700000e+00 0.0000000e+00 
6.7800000e+00 5.9900000e+00 0.0000000e+00 
6.7800000e+00 6.0100000e+00 0.0000000e+00 
6.7800000e+00 6.0300000e+00 0.0000000e+00 
6.8066667e+00 5.9700000e+00 0.0000000e+00 
6.8066667e+00 5.9900000e+00 0.0000000e+00 
6.8066667e+00 6.0100000e+00 0.0000000e+00 
6.8066667e+00 6.0300000e+00 0.0000000e+00 
6.8333333e+00 5.9700000e+00 0.0000000e+00 
6.8333333e+00 5.9900000e+00 0.0000000e+00 
6.8333333e+00 6.0100000e+00 0.0000000e+00 
6.8333333e+00 6.0300000e+00 0.0000000e+00 
6.8600000e+00 5.9700000e+00 0.0000000e+00 
6.8600000e+00 5.9900000e+00 0.0000000e+00 
6.8600000e+00 6.0100000e+00 0.0000000e+00 
6.8600000e+00 6.0300000e+00 0.0000000e+00 
6.8866667e+00 5.9700000e+00 0.0000000e+00 
6.8866667e+00 5.9900000e+00 0.0000000e+00 
6.8866667e+00 6.0100000e+00 0.0000000e+00 
6.8866667e+00 6.0300000e+00 0.0000000e+00 
6.9133333e+00 5.9700000e+00 0.0000000e+00 
6.9133333e+00 5.9900000e+00 0.0000000e+00 
6.9133333e+00 6.0100000e+00 0.0000000e+00 
6.9133333e+00 6.0300000e+00 0.0000000e+00 
6.9400000e+00 5.9700000e+00 0.0000000e+00 
6.9400000e+00 5.9900000e+00 0.0000000e+00 
6.9400000e+00 6.0100000e+00 0.0000000e+00 
6.9400000e+00 6.0300000e+00 0.0000000e+00 
6.9666667e+00 5.9700000e+00 0.0000000e+00 
6.9666667e+00 5.9900000e+00 0.0000000e+00 
6.9666667e+00 6.0100000e+00 0.0000000e+00 
6.9666667e+00 6.0300000e+00 0.0000000e+00 
6.9933333e+00 5.9700000e+00 0.0000000e+00 
6.9933333e+00 5.9900000e+00 0.0000000e+00 
6.9933333e+00 6.0100000e+00 0.0000000e+00 
6.9933333e+00 6.0300000e+00 0.0000000e+00 
7.0200000e+00 5.9700000e+00 0.0000000e+00 
7.0200000e+00 5.9900000e+00 0.0000000e+00 
[...]
POINT_DATA 604
FIELD FieldData 2
DISPLACEMENT 3 604  float
0.0000000e+00 0.0000000e+00 0.0000000e+00 
0.0000000e+00 0.0000000e+00 0.0000000e+00 
5.2351755e-05 2.8813156e-05 0.0000000e+00 
1.7052533e-05 1.7506948e-05 0.0000000e+00 
0.0000000e+00 0.0000000e+00 0.0000000e+00 
-1.7041786e-05 1.7459544e-05 0.0000000e+00 
1.0836000e-04 9.7471781e-05 0.0000000e+00 
3.6460146e-05 8.7542799e-05 0.0000000e+00 
0.0000000e+00 0.0000000e+00 0.0000000e+00 
-5.2355553e-05 2.8685958e-05 0.0000000e+00 
-3.6600743e-05 8.7383976e-05 0.0000000e+00 
1.6607818e-04 2.1832979e-04 0.0000000e+00 
-1.0856115e-04 9.7025514e-05 0.0000000e+00 
5.5400044e-05 2.0770070e-04 0.0000000e+00 
-5.6058157e-05 2.0736481e-04 0.0000000e+00 
-1.6684449e-04 2.1735423e-04 0.0000000e+00 
2.2521332e-04 3.9151047e-04 0.0000000e+00 
7.4761141e-05 3.8034128e-04 0.0000000e+00 
-7.6522929e-05 3.7974324e-04 0.0000000e+00 
-2.2712821e-04 3.8975161e-04 0.0000000e+00 
2.8564790e-04 6.1871521e-04 0.0000000e+00 
9.4267326e-05 6.0689882e-04 0.0000000e+00 
-9.7947306e-05 6.0594805e-04 0.0000000e+00 
-2.8952948e-04 6.1590260e-04 0.0000000e+00 
3.4721200e-04 9.0143521e-04 0.0000000e+00 
1.1379784e-04 8.8888379e-04 0.0000000e+00 
-1.2045993e-04 8.8748358e-04 0.0000000e+00 
-3.5412826e-04 8.9727836e-04 0.0000000e+00 
4.0973368e-04 1.2411434e-03 0.0000000e+00 
1.3320431e-04 1.2277602e-03 0.0000000e+00 
-1.4417964e-04 1.2258072e-03 0.0000000e+00 
-4.2101927e-04 1.2353322e-03 0.0000000e+00 
4.7303154e-04 1.6392765e-03 0.0000000e+00 
1.5233144e-04 1.6249583e-03 0.0000000e+00 
-1.6923590e-04 1.6223426e-03 0.0000000e+00 
-4.9030581e-04 1.6314808e-03 0.0000000e+00 
5.3691540e-04 2.0972364e-03 0.0000000e+00 
1.7101498e-04 2.0818737e-03 0.0000000e+00 
-1.9576683e-04 2.0784786e-03 0.0000000e+00 
-5.6209976e-04 2.0871068e-03 0.0000000e+00 
6.0118579e-04 2.6163902e-03 0.0000000e+00 
1.8908206e-04 2.5998666e-03 0.0000000e+00 
-2.2391918e-04 2.5955693e-03 0.0000000e+00 
-6.3652174e-04 2.6035574e-03 0.0000000e+00 
6.6563560e-04 3.1980696e-03 0.0000000e+00 
2.0635096e-04 3.1802628e-03 0.0000000e+00 
-2.5384831e-04 3.1749339e-03 0.0000000e+00 
-7.1370082e-04 3.1821458e-03 0.0000000e+00 
7.3004743e-04 3.8435715e-03 0.0000000e+00 
2.2263176e-04 3.8243526e-03 0.0000000e+00 
-2.8571799e-04 3.8178565e-03 0.0000000e+00 
-7.9377444e-04 3.8241493e-03 0.0000000e+00 
7.9419750e-04 4.5541573e-03 0.0000000e+00 
2.3772601e-04 4.5333914e-03 0.0000000e+00 
-3.1970033e-04 4.5255861e-03 0.0000000e+00 
-8.7688846e-04 4.5308114e-03 0.0000000e+00 
8.5785274e-04 5.3310534e-03 0.0000000e+00 
2.5142736e-04 5.3085993e-03 0.0000000e+00 
-3.5597562e-04 5.2993371e-03 0.0000000e+00 
-9.6319698e-04 5.3033398e-03 0.0000000e+00 
9.2077324e-04 6.1754509e-03 0.0000000e+00 
2.6352134e-04 6.1511617e-03 0.0000000e+00 
-3.9473215e-04 6.1402889e-03 0.0000000e+00 
-1.0528622e-03 6.1429086e-03 0.0000000e+00 
9.8271044e-04 7.0885064e-03 0.0000000e+00 
2.7378572e-04 7.0622293e-03 0.0000000e+00 
-4.3616612e-04 7.0495862e-03 0.0000000e+00 
-1.1460540e-03 7.0506564e-03 0.0000000e+00 
1.0434082e-03 8.0713411e-03 0.0000000e+00 
2.8199078e-04 8.0429176e-03 0.0000000e+00 
-4.8048121e-04 8.0283390e-03 0.0000000e+00 
-1.2429502e-03 8.0276873e-03 0.0000000e+00 
1.1026042e-03 9.1250413e-03 0.0000000e+00 
2.8789933e-04 9.0943075e-03 0.0000000e+00 
-5.2788862e-04 9.0776228e-03 0.0000000e+00 
-1.3437359e-03 9.0750720e-03 0.0000000e+00 
1.1600278e-03 1.0250659e-02 0.0000000e+00 
2.9126720e-04 1.0217445e-02 0.0000000e+00 
-5.7860673e-04 1.0198479e-02 0.0000000e+00 
-1.4486036e-03 1.0193846e-02 0.0000000e+00 
1.2154022e-03 1.1449211e-02 0.0000000e+00 
2.9184343e-04 1.1413343e-02 0.0000000e+00 
-6.3286096e-04 1.1391913e-02 0.0000000e+00 
-1.5577532e-03 1.1385010e-02 0.0000000e+00 
1.2684454e-03 1.2721680e-02 0.0000000e+00 
2.8937034e-04 1.2682979e-02 0.0000000e+00 
-6.9088347e-04 1.2658899e-02 0.0000000e+00 
-1.6713913e-03 1.2649533e-02 0.0000000e+00 
1.3188678e-03 1.4069015e-02 0.0000000e+00 
2.8358381e-04 1.4027296e-02 0.0000000e+00 
-7.5291290e-04 1.4000376e-02 0.0000000e+00 
-1.7897311e-03 1.3988350e-02 0.0000000e+00 
1.3663728e-03 1.5492130e-02 0.0000000e+00 
2.7421345e-04 1.5447204e-02 0.0000000e+00 
-8.1919411e-04 1.5417249e-02 0.0000000e+00 
-1.9129915e-03 1.5402361e-02 0.0000000e+00 
1.4106593e-03 1.6991905e-02 0.0000000e+00 
2.6098245e-04 1.6943580e-02 0.0000000e+00 
-8.8997778e-04 1.6910390e-02 0.0000000e+00 
-2.0413977e-03 1.6892432e-02 0.0000000e+00 
1.4514168e-03 1.8569185e-02 0.0000000e+00 
2.4360881e-04 1.8517264e-02 0.0000000e+00 
-9.6552022e-04 1.8480635e-02 0.0000000e+00 
-2.1751794e-03 1.8459397e-02 0.0000000e+00 
1.4883335e-03 2.0224779e-02 0.0000000e+00 
2.2180492e-04 2.0169060e-02 0.0000000e+00 
-1.0460830e-03 2.0128785e-02 0.0000000e+00 
-2.3145728e-03 2.0104054e-02 0.0000000e+00 
1.5210910e-03 2.1959462e-02 0.0000000e+00 
1.9527855e-04 2.1899742e-02 0.0000000e+00 
-1.1319327e-03 2.1855610e-02 0.0000000e+00 
-2.4598183e-03 2.1827166e-02 0.0000000e+00 
1.5493671e-03 2.3773976e-02 0.0000000e+00 
1.6373269e-04 2.3710046e-02 0.0000000e+00 
-1.2233406e-03 2.3661841e-02 0.0000000e+00 
-2.6111617e-03 2.3629464e-02 0.0000000e+00 
1.5728346e-03 2.5669025e-02 0.0000000e+00 
1.2686619e-04 2.5600674e-02 0.0000000e+00 
-1.3205823e-03 2.5548180e-02 0.0000000e+00 
-2.7688527e-03 2.5511644e-02 0.0000000e+00 
1.5911631e-03 2.7645281e-02 0.0000000e+00 
8.4373704e-05 2.7572296e-02 0.0000000e+00 
-1.4239374e-03 2.7515291e-02 0.0000000e+00 
-2.9331453e-03 2.7474370e-02 0.0000000e+00 
1.6040177e-03 2.9703380e-02 0.0000000e+00 
3.5946242e-05 2.9625544e-02 0.0000000e+00 
-1.5336890e-03 2.9563807e-02 0.0000000e+00 
-3.1042968e-03 2.9518270e-02 0.0000000e+00 
1.6110601e-03 3.1843926e-02 0.0000000e+00 
-1.8728317e-05 3.1761020e-02 0.0000000e+00 
-1.6501237e-03 3.1694323e-02 0.0000000e+00 
-3.2825676e-03 3.1643939e-02 0.0000000e+00 
1.6119502e-03 3.4067483e-02 0.0000000e+00 
-7.9965168e-05 3.3979287e-02 0.0000000e+00 
-1.7735307e-03 3.3907404e-02 0.0000000e+00 
-3.4682213e-03 3.3851938e-02 0.0000000e+00 
1.6063440e-03 3.6374585e-02 0.0000000e+00 
-1.4808181e-04 3.6280876e-02 0.0000000e+00 
-1.9042018e-03 3.6203578e-02 0.0000000e+00 
-3.6615240e-03 3.6142793e-02 0.0000000e+00 
1.5938961e-03 3.8765730e-02 0.0000000e+00 
-2.2339750e-04 3.8666283e-02 0.0000000e+00 
-2.0424310e-03 3.8583339e-02 0.0000000e+00 
-3.8627439e-03 3.8516999e-02 0.0000000e+00 
1.5742624e-03 4.1241380e-02 0.0000000e+00 
-3.0623355e-04 4.1135970e-02 0.0000000e+00 
-2.1885142e-03 4.1047148e-02 0.0000000e+00 
-4.0721520e-03 4.0975014e-02 0.0000000e+00 
1.5470943e-03 4.3801966e-02 0.0000000e+00 
-3.9691257e-04 4.3690367e-02 0.0000000e+00 
-2.3427487e-03 4.3595434e-02 0.0000000e+00 
-4.2900200e-03 4.3517266e-02 0.0000000e+00 
1.5120417e-03 4.6447882e-02 0.0000000e+00 
-4.9575844e-04 4.6329868e-02 0.0000000e+00 
-2.5054327e-03 4.6228590e-02 0.0000000e+00 
-4.5166201e-03 4.6144148e-02 0.0000000e+00 
1.4687552e-03 4.9179488e-02 0.0000000e+00 
-6.0309635e-04 4.9054832e-02 0.0000000e+00 
-2.6768648e-03 4.8946976e-02 0.0000000e+00 
-4.7522249e-03 4.8856019e-02 0.0000000e+00 
1.4168800e-03 5.1997109e-02 0.0000000e+00 
-7.1925103e-04 5.1865583e-02 0.0000000e+00 
-2.8573438e-03 5.1750917e-02 0.0000000e+00 
-4.9971061e-03 5.1653204e-02 0.0000000e+00 
1.3560672e-03 5.4901032e-02 0.0000000e+00 
-8.4454727e-04 5.4762411e-02 0.0000000e+00 
-3.0471676e-03 5.4640701e-02 0.0000000e+00 
-5.2515356e-03 5.4535992e-02 0.0000000e+00 
1.2859667e-03 5.7891510e-02 0.0000000e+00 
-9.7930855e-04 5.7745569e-02 0.0000000e+00 
-3.2466340e-03 5.7616582e-02 0.0000000e+00 
-5.5157847e-03 5.7504639e-02 0.0000000e+00 
1.2062306e-03 6.0968761e-02 0.0000000e+00 
-1.1238573e-03 6.0815274e-02 0.0000000e+00 
-3.4560389e-03 6.0678780e-02 0.0000000e+00 
-5.7901234e-03 6.0559365e-02 0.0000000e+00 
1.1165117e-03 6.4132967e-02 0.0000000e+00 
-1.2785141e-03 6.3971712e-02 0.0000000e+00 
-3.6756770e-03 6.3827481e-02 0.0000000e+00 
-6.0748198e-03 6.3700356e-02 0.0000000e+00 
1.0164656e-03 6.7384275e-02 0.0000000e+00 
-1.4435976e-03 6.7215031e-02 0.0000000e+00 
-3.9058405e-03 6.7062834e-02 0.0000000e+00 
-6.3701401e-03 6.6927765e-02 0.0000000e+00 
9.0574964e-04 7.0722795e-02 0.0000000e+00 
-1.6194241e-03 7.0545343e-02 0.0000000e+00 
-4.1468193e-03 7.0384955e-02 0.0000000e+00 
-6.6763475e-03 7.0241708e-02 0.0000000e+00 
7.8402368e-04 7.4148605e-02 0.0000000e+00 
-1.8063068e-03 7.3962727e-02 0.0000000e+00 
-4.3988999e-03 7.3793925e-02 0.0000000e+00 
-6.9937017e-03 7.3642270e-02 0.0000000e+00 
6.5095200e-04 7.7661741e-02 0.0000000e+00 
-2.0045552e-03 7.7467225e-02 0.0000000e+00 
-4.6623652e-03 7.7289788e-02 0.0000000e+00 
-7.3224588e-03 7.7129498e-02 0.0000000e+00 
5.0620169e-04 8.1262208e-02 0.0000000e+00 
-2.2144751e-03 8.1058843e-02 0.0000000e+00 
-4.9374941e-03 8.0872554e-02 0.0000000e+00 
-7.6628707e-03 8.0703403e-02 0.0000000e+00 
3.4944524e-04 8.4949971e-02 0.0000000e+00 
-2.4363676e-03 8.4737551e-02 0.0000000e+00 
-5.2245607e-03 8.4542196e-02 0.0000000e+00 
-8.0151846e-03 8.4363964e-02 0.0000000e+00 
1.8035892e-04 8.8724961e-02 0.0000000e+00 
-2.6705290e-03 8.8503282e-02 0.0000000e+00 
-5.5238342e-03 8.8298651e-02 0.0000000e+00 
-8.3796427e-03 8.8111121e-02 0.0000000e+00 
-1.3754694e-06 9.2587070e-02 0.0000000e+00 
-2.9172491e-03 9.2355935e-02 0.0000000e+00 
-5.8355783e-03 9.2141822e-02 0.0000000e+00 
-8.7564816e-03 9.1944781e-02 0.0000000e+00 
-1.9606478e-04 9.6536158e-02 0.0000000e+00 
-3.1768126e-03 9.6295371e-02 0.0000000e+00 
-6.1600508e-03 9.6071576e-02 0.0000000e+00 
-9.1459332e-03 9.5864816e-02 0.0000000e+00 
-4.0401544e-04 1.0057205e-01 0.0000000e+00 
-3.4494976e-03 1.0032142e-01 0.0000000e+00 
-6.4975033e-03 1.0008775e-01 0.0000000e+00 
-9.5482220e-03 9.9871063e-02 0.0000000e+00 
-6.2552640e-04 1.0469452e-01 0.0000000e+00 
-3.7355758e-03 1.0443387e-01 0.0000000e+00 
-6.8481805e-03 1.0419013e-01 0.0000000e+00 
-9.9635652e-03 1.0396332e-01 0.0000000e+00 
-8.6088827e-04 1.0890333e-01 0.0000000e+00 
-4.0353125e-03 1.0863247e-01 0.0000000e+00 
-7.2123190e-03 1.0837848e-01 0.0000000e+00 
-1.0392172e-02 1.0814136e-01 0.0000000e+00 
-1.1103911e-03 1.1319818e-01 0.0000000e+00 
-4.3489642e-03 1.1291695e-01 0.0000000e+00 
-7.5901478e-03 1.1265252e-01 0.0000000e+00 
-1.0834242e-02 1.1240491e-01 0.0000000e+00 
-1.3743089e-03 1.1757874e-01 0.0000000e+00 
-4.6767795e-03 1.1728698e-01 0.0000000e+00 
-7.9818867e-03 1.1701195e-01 0.0000000e+00 
-1.1289967e-02 1.1675366e-01 0.0000000e+00 
-1.6529084e-03 1.2204466e-01 0.0000000e+00 
-5.0189972e-03 1.2174220e-01 0.0000000e+00 
-8.3877468e-03 1.2145640e-01 0.0000000e+00 
-1.1759530e-02 1.2118725e-01 0.0000000e+00 
-1.9464464e-03 1.2659551e-01 0.0000000e+00 
-5.3758463e-03 1.2628221e-01 0.0000000e+00 
-8.8079295e-03 1.2598548e-01 0.0000000e+00 
-1.2243105e-02 1.2570532e-01 0.0000000e+00 
-2.2551697e-03 1.3123087e-01 0.0000000e+00 
-5.7475464e-03 1.3090658e-01 0.0000000e+00 
-9.2426263e-03 1.3059878e-01 0.0000000e+00 
-1.2740855e-02 1.3030745e-01 0.0000000e+00 
-2.5793155e-03 1.3595025e-01 0.0000000e+00 
-6.1343063e-03 1.3561484e-01 0.0000000e+00 
-9.6920183e-03 1.3529582e-01 0.0000000e+00 
-1.3252934e-02 1.3499316e-01 0.0000000e+00 
-2.9191091e-03 1.4075314e-01 0.0000000e+00 
-6.5363239e-03 1.4040647e-01 0.0000000e+00 
-1.0156276e-02 1.4007610e-01 0.0000000e+00 
-1.3779483e-02 1.3976199e-01 0.0000000e+00 
-3.2747652e-03 1.4563898e-01 0.0000000e+00 
-6.9537857e-03 1.4528094e-01 0.0000000e+00 
-1.0635557e-02 1.4493909e-01 0.0000000e+00 
-1.4320633e-02 1.4461338e-01 0.0000000e+00 
-3.6464868e-03 1.5060717e-01 0.0000000e+00 
-7.3868654e-03 1.5023766e-01 0.0000000e+00 
-1.1130008e-02 1.4988422e-01 0.0000000e+00 
-1.4876504e-02 1.4954679e-01 0.0000000e+00 
-4.0344574e-03 1.5565710e-01 0.0000000e+00 
-7.8357250e-03 1.5527601e-01 0.0000000e+00 
-1.1639766e-02 1.5491087e-01 0.0000000e+00 
-1.5447205e-02 1.5456161e-01 0.0000000e+00 
-4.4388557e-03 1.6078809e-01 0.0000000e+00 
-8.3005137e-03 1.6039534e-01 0.0000000e+00 
-1.2164953e-02 1.6001840e-01 0.0000000e+00 
-1.6032832e-02 1.5965720e-01 0.0000000e+00 
-4.8598439e-03 1.6599945e-01 0.0000000e+00 
-8.7813684e-03 1.6559495e-01 0.0000000e+00 
-1.2705678e-02 1.6520612e-01 0.0000000e+00 
-1.6633467e-02 1.6483289e-01 0.0000000e+00 
-5.2975719e-03 1.7129044e-01 0.0000000e+00 
-9.2784137e-03 1.7087412e-01 0.0000000e+00 
-1.3262038e-02 1.7047333e-01 0.0000000e+00 
-1.7249180e-02 1.7008798e-01 0.0000000e+00 
-5.7521830e-03 1.7666028e-01 0.0000000e+00 
-9.7917593e-03 1.7623208e-01 0.0000000e+00 
-1.3834117e-02 1.7581927e-01 0.0000000e+00 
-1.7880025e-02 1.7542173e-01 0.0000000e+00 
-6.2237975e-03 1.8210817e-01 0.0000000e+00 
-1.0321501e-02 1.8166804e-01 0.0000000e+00 
-1.4421982e-02 1.8124314e-01 0.0000000e+00 
-1.8526044e-02 1.8083335e-01 0.0000000e+00 
-6.7125214e-03 1.8763325e-01 0.0000000e+00 
-1.0867719e-02 1.8718116e-01 0.0000000e+00 
-1.5025688e-02 1.8674413e-01 0.0000000e+00 
-1.9187265e-02 1.8632204e-01 0.0000000e+00 
-7.2184462e-03 1.9323465e-01 0.0000000e+00 
-1.1430480e-02 1.9277056e-01 0.0000000e+00 
-1.5645275e-02 1.9232137e-01 0.0000000e+00 
-1.9863704e-02 1.9188693e-01 0.0000000e+00 
-7.7416462e-03 1.9891144e-01 0.0000000e+00 
-1.2009832e-02 1.9843535e-01 0.0000000e+00 
-1.6280769e-02 1.9797397e-01 0.0000000e+00 
-2.0555359e-02 1.9752715e-01 0.0000000e+00 
-8.2821814e-03 2.0466268e-01 0.0000000e+00 
-1.2605813e-02 2.0417458e-01 0.0000000e+00 
-1.6932180e-02 2.0370100e-01 0.0000000e+00 
-2.1262218e-02 2.0324179e-01 0.0000000e+00 
-8.8400953e-03 2.1048739e-01 0.0000000e+00 
-1.3218440e-02 2.0998728e-01 0.0000000e+00 
-1.7599504e-02 2.0950151e-01 0.0000000e+00 
-2.1984253e-02 2.0902990e-01 0.0000000e+00 
-9.4154136e-03 2.1638456e-01 0.0000000e+00 
-1.3847718e-02 2.1587246e-01 0.0000000e+00 
-1.8282723e-02 2.1537450e-01 0.0000000e+00 
-2.2721423e-02 2.1489049e-01 0.0000000e+00 
-1.0008147e-02 2.2235314e-01 0.0000000e+00 
-1.4493636e-02 2.2182908e-01 0.0000000e+00 
-1.8981803e-02 2.2131895e-01 0.0000000e+00 
-2.3473673e-02 2.2082257e-01 0.0000000e+00 
-1.0618290e-02 2.2839207e-01 0.0000000e+00 
-1.5156166e-02 2.2785608e-01 0.0000000e+00 
-1.9696697e-02 2.2733382e-01 0.0000000e+00 
-2.4240933e-02 2.2682509e-01 0.0000000e+00 
-1.1245820e-02 2.3450024e-01 0.0000000e+00 
-1.5835266e-02 2.3395238e-01 0.0000000e+00 
-2.0427341e-02 2.3341803e-01 0.0000000e+00 
-2.5023121e-02 2.3289699e-01 0.0000000e+00 
-1.1890700e-02 2.4067654e-01 0.0000000e+00 
-1.6530879e-02 2.4011686e-01 0.0000000e+00 
-2.1173658e-02 2.3957048e-01 0.0000000e+00 
-2.5820140e-02 2.3903719e-01 0.0000000e+00 
-1.2552874e-02 2.4691981e-01 0.0000000e+00 
-1.7242930e-02 2.4634839e-01 0.0000000e+00 
-2.1935557e-02 2.4579005e-01 0.0000000e+00 
-2.6631878e-02 2.4524456e-01 0.0000000e+00 
-1.3232269e-02 2.5322887e-01 0.0000000e+00 
-1.7971331e-02 2.5264580e-01 0.0000000e+00 
-2.2712930e-02 2.5207558e-01 0.0000000e+00 
-2.7458214e-02 2.5151796e-01 0.0000000e+00 
-1.3928798e-02 2.5960255e-01 0.0000000e+00 
-1.8715976e-02 2.5900791e-01 0.0000000e+00 
-2.3505658e-02 2.5842589e-01 0.0000000e+00 
-2.8299011e-02 2.5785624e-01 0.0000000e+00 
-1.4642357e-02 2.6603962e-01 0.0000000e+00 
-1.9476749e-02 2.6543351e-01 0.0000000e+00 
-2.4313606e-02 2.6483980e-01 0.0000000e+00 
-2.9154118e-02 2.6425821e-01 0.0000000e+00 
-1.5372829e-02 2.7253884e-01 0.0000000e+00 
-2.0253517e-02 2.7192139e-01 0.0000000e+00 
-2.5136627e-02 2.7131609e-01 0.0000000e+00 
-3.0023371e-02 2.7072266e-01 0.0000000e+00 
-1.6120087e-02 2.7909895e-01 0.0000000e+00 
-2.1046133e-02 2.7847028e-01 0.0000000e+00 
-2.5974557e-02 2.7785352e-01 0.0000000e+00 
-3.0906591e-02 2.7724837e-01 0.0000000e+00 
-1.6883983e-02 2.8571869e-01 0.0000000e+00 
-2.1854435e-02 2.8507893e-01 0.0000000e+00 
-2.6827221e-02 2.8445083e-01 0.0000000e+00 
-3.1803591e-02 2.8383410e-01 0.0000000e+00 
-1.7664350e-02 2.9239674e-01 0.0000000e+00 
-2.2678246e-02 2.9174604e-01 0.0000000e+00 
-2.7694430e-02 2.9110675e-01 0.0000000e+00 
-3.2714166e-02 2.9047857e-01 0.0000000e+00 
-1.8461012e-02 2.9913180e-01 0.0000000e+00 
-2.3517378e-02 2.9847032e-01 0.0000000e+00 
-2.8575982e-02 2.9781999e-01 0.0000000e+00 
-3.3638106e-02 2.9718050e-01 0.0000000e+00 
-1.9273774e-02 3.0592255e-01 0.0000000e+00 
-2.4371623e-02 3.0525044e-01 0.0000000e+00 
-2.9471663e-02 3.0458923e-01 0.0000000e+00 
-3.4575184e-02 3.0393861e-01 0.0000000e+00 
-2.0102427e-02 3.1276764e-01 0.0000000e+00 
-2.5240768e-02 3.1208508e-01 0.0000000e+00 
-3.0381247e-02 3.1141316e-01 0.0000000e+00 
-3.5525168e-02 3.1075156e-01 0.0000000e+00 
-2.0946750e-02 3.1966573e-01 0.0000000e+00 
-2.6124581e-02 3.1897291e-01 0.0000000e+00 
-3.1304499e-02 3.1829046e-01 0.0000000e+00 
-3.6487815e-02 3.1761806e-01 0.0000000e+00 
-2.1806509e-02 3.2661547e-01 0.0000000e+00 
-2.7022824e-02 3.2591256e-01 0.0000000e+00 
-3.2241172e-02 3.2521977e-01 0.0000000e+00 
-3.7462872e-02 3.2453676e-01 0.0000000e+00 
-2.2681457e-02 3.3361550e-01 0.0000000e+00 
-2.7935244e-02 3.3290270e-01 0.0000000e+00 
-3.3191010e-02 3.3219976e-01 0.0000000e+00 
-3.8450079e-02 3.3150633e-01 0.0000000e+00 
-2.3571334e-02 3.4066445e-01 0.0000000e+00 
-2.8861579e-02 3.3994196e-01 0.0000000e+00 
-3.4153747e-02 3.3922907e-01 0.0000000e+00 
-3.9449166e-02 3.3852542e-01 0.0000000e+00 
-2.4475874e-02 3.4776095e-01 0.0000000e+00 
-2.9801557e-02 3.4702899e-01 0.0000000e+00 
-3.5129108e-02 3.4630635e-01 0.0000000e+00 
-4.0459858e-02 3.4559268e-01 0.0000000e+00 
-2.5394793e-02 3.5490363e-01 0.0000000e+00 
-3.0754898e-02 3.5416241e-01 0.0000000e+00 
-3.6116811e-02 3.5343024e-01 0.0000000e+00 
-4.1481868e-02 3.5270678e-01 0.0000000e+00 
-2.6327804e-02 3.6209113e-01 0.0000000e+00 
-3.1721311e-02 3.6134086e-01 0.0000000e+00 
-3.7116566e-02 3.6059938e-01 0.0000000e+00 
-4.2514905e-02 3.5986634e-01 0.0000000e+00 
-2.7274615e-02 3.6932205e-01 0.0000000e+00 
-3.2700500e-02 3.6856297e-01 0.0000000e+00 
-3.8128072e-02 3.6781241e-01 0.0000000e+00 
-4.3558669e-02 3.6707002e-01 0.0000000e+00 
-2.8234918e-02 3.7659504e-01 0.0000000e+00 
-3.3692159e-02 3.7582737e-01 0.0000000e+00 
-3.9151025e-02 3.7506796e-01 0.0000000e+00 
-4.4612855e-02 3.7431645e-01 0.0000000e+00 
-2.9208397e-02 3.8390872e-01 0.0000000e+00 
-3.4695973e-02 3.8313270e-01 0.0000000e+00 
-4.0185113e-02 3.8236468e-01 0.0000000e+00 
-4.5677152e-02 3.8160428e-01 0.0000000e+00 
-3.0194730e-02 3.9126171e-01 0.0000000e+00 
-3.5711622e-02 3.9047759e-01 0.0000000e+00 
-4.1230018e-02 3.8970119e-01 0.0000000e+00 
-4.6751246e-02 3.8893215e-01 0.0000000e+00 
-3.1193586e-02 3.9865266e-01 0.0000000e+00 
-3.6738781e-02 3.9786068e-01 0.0000000e+00 
-4.2285417e-02 3.9707615e-01 0.0000000e+00 
-4.7834817e-02 3.9629872e-01 0.0000000e+00 
-3.2204630e-02 4.0608021e-01 0.0000000e+00 
-3.7777117e-02 4.0528061e-01 0.0000000e+00 
-4.3350983e-02 4.0448820e-01 0.0000000e+00 
-4.8927546e-02 4.0370263e-01 0.0000000e+00 
-3.3227518e-02 4.1354302e-01 0.0000000e+00 
-3.8826293e-02 4.1273604e-01 0.0000000e+00 
-4.4426387e-02 4.1193601e-01 0.0000000e+00 
-5.0029105e-02 4.1114254e-01 0.0000000e+00 
-3.4261901e-02 4.2103973e-01 0.0000000e+00 
-3.9885969e-02 4.2022564e-01 0.0000000e+00 
-4.5511294e-02 4.1941823e-01 0.0000000e+00 
-5.1139171e-02 4.1861712e-01 0.0000000e+00 
-3.5307430e-02 4.2856902e-01 0.0000000e+00 
-4.0955802e-02 4.2774807e-01 0.0000000e+00 
-4.6605369e-02 4.2693353e-01 0.0000000e+00 
-5.2257416e-02 4.2612505e-01 0.0000000e+00 
-3.6363747e-02 4.3612958e-01 0.0000000e+00 
-4.2035444e-02 4.3530202e-01 0.0000000e+00 
-4.7708276e-02 4.3448062e-01 0.0000000e+00 
-5.3383513e-02 4.3366502e-01 0.0000000e+00 
-3.7430494e-02 4.4372011e-01 0.0000000e+00 
-4.3124548e-02 4.4288619e-01 0.0000000e+00 
-4.8819677e-02 4.4205819e-01 0.0000000e+00 
-5.4517136e-02 4.4123572e-01 0.0000000e+00 
-3.8507311e-02 4.5133932e-01 0.0000000e+00 
-4.4222766e-02 4.5049930e-01 0.0000000e+00 
-4.9939235e-02 4.4966495e-01 0.0000000e+00 
-5.5657960e-02 4.4883588e-01 0.0000000e+00 
-3.9593837e-02 4.5898595e-01 0.0000000e+00 
-4.5329747e-02 4.5814009e-01 0.0000000e+00 
-5.1066613e-02 4.5729963e-01 0.0000000e+00 
-5.6805659e-02 4.5646423e-01 0.0000000e+00 
-4.0689707e-02 4.6665874e-01 0.0000000e+00 
-4.6445142e-02 4.6580728e-01 0.0000000e+00 
-5.2201474e-02 4.6496099e-01 0.0000000e+00 