# vtk DataFile Version 4.0
vtk output
ASCII
DATASET UNSTRUCTURED_GRID
POINTS 604 float
5.5000000e+00 5.9700000e+00 0.0000000e+00 
5.5000000e+00 5.9900000e+00 0.0000000e+00 
5.5266667e+00 5.9700000e+00 0.0000000e+00 
5.5266667e+00 5.9900000e+00 0.0000000e+00 
5.5000000e+00 6.0100000e+00 0.0000000e+00 
5.5266667e+00 6.0100000e+00 0.0000000e+00 
5.5533333e+00 5.9700000e+00 0.0000000e+00 
5.5533333e+00 5.9900000e+00 0.0000000e+00 
5.5000000e+00 6.0300000e+00 0.0000000e+00 
5.5266667e+00 6.0300000e+00 0.0000000e+00 
5.5533333e+00 6.0100000e+00 0.0000000e+00 
5.5800000e+00 5.9700000e+00 0.0000000e+00 
5.5533333e+00 6.0300000e+00 0.0000000e+00 
5.5800000e+00 5.9900000e+00 0.0000000e+00 
5.5800000e+00 6.0100000e+00 0.0000000e+00 
5.5800000e+00 6.0300000e+00 0.0000000e+00 
5.6066667e+00 5.9700000e+00 0.0000000e+00 
5.6066667e+00 5.9900000e+00 0.0000000e+00 
5.6066667e+00 6.0100000e+00 0.0000000e+00 
5.6066667e+00 6.0300000e+00 0.0000000e+00 
5.6333333e+00 5.9700000e+00 0.0000000e+00 
5.6333333e+00 5.9900000e+00 0.0000000e+00 
5.6333333e+00 6.0100000e+00 0.0000000e+00 
5.6333333e+00 6.0300000e+00 0.0000000e+00 
5.6600000e+00 5.9700000e+00 0.0000000e+00 
5.6600000e+00 5.9900000e+00 0.0000000e+00 
5.6600000e+00 6.0100000e+00 0.0000000e+00 
5.6600000e+00 6.0300000e+00 0.0000000e+00 
5.6866667e+00 5.9700000e+00 0.0000000e+00 
5.6866667e+00 5.9900000e+00 0.0000000e+00 
5.6866667e+00 6.0100000e+00 0.0000000e+00 
5.6866667e+00 6.0300000e+00 0.0000000e+00 
5.7133333e+00 5.9700000e+00 0.0000000e+00 
5.7133333e+00 5.9900000e+00 0.0000000e+00 
5.7133333e+00 6.0100000e+00 0.0000000e+00 
5.7133333e+00 6.0300000e+00 0.0000000e+00 
5.7400000e+00 5.9700000e+00 0.0000000e+00 
5.7400000e+00 5.9900000e+00 0.0000000e+00 
5.7400000e+00 6.0100000e+00 0.0000000e+00 
5.7400000e+00 6.0300000e+00 0.0000000e+00 
5.7666667e+00 5.9700000e+00 0.0000000e+00 
5.7666667e+00 5.9900000e+00 0.0000000e+00 
5.7666667e+00 6.0100000e+00 0.0000000e+00 
5.7666667e+00 6.0300000e+00 0.0000000e+00 
5.7933333e+00 5.9700000e+00 0.0000000e+00 
5.7933333e+00 5.9900000e+00 0.0000000e+00 
5.7933333e+00 6.0100000e+00 0.0000000e+00 
5.7933333e+00 6.0300000e+00 0.0000000e+00 
5.8200000e+00 5.9700000e+00 0.0000000e+00 
5.8200000e+00 5.9900000e+00 0.0000000e+00 
5.8200000e+00 6.0100000e+00 0.0000000e+00 
5.8200000e+00 6.0300000e+00 0.0000000e+00 
5.8466667e+00 5.9700000e+00 0.0000000e+00 
5.8466667e+00 5.9900000e+00 0.0000000e+00 
5.8466667e+00 6.0100000e+00 0.0000000e+00 
5.8466667e+00 6.0300000e+00 0.0000000e+00 
5.8733333e+00 5.9700000e+00 0.0000000e+00 
5.8733333e+00 5.9900000e+00 0.0000000e+00 
5.8733333e+00 6.0100000e+00 0.0000000e+00 
5.8733333e+00 6.0300000e+00 0.0000000e+00 
5.9000000e+00 5.9700000e+00 0.0000000e+00 
5.9000000e+00 5.9900000e+00 0.0000000e+00 
5.9000000e+00 6.0100000e+00 0.0000000e+00 
5.9000000e+00 6.0300000e+00 0.0000000e+00 
5.9266667e+00 5.9700000e+00 0.0000000e+00 
5.9266667e+00 5.9900000e+00 0.0000000e+00 
5.9266667e+00 6.0100000e+00 0.0000000e+00 
5.9266667e+00 6.0300000e+00 0.0000000e+00 
5.9533333e+00 5.9700000e+00 0.0000000e+00 
5.9533333e+00 5.9900000e+00 0.0000000e+00 
5.9533333e+00 6.0100000e+00 0.0000000e+00 
5.9533333e+00 6.0300000e+00 0.0000000e+00 
5.9800000e+00 5.9700000e+00 0.0000000e+00 
5.9800000e+00 5.9900000e+00 0.0000000e+00 
5.9800000e+00 6.0100000e+00 0.0000000e+00 
5.9800000e+00 6.0300000e+00 0.0000000e+00 
6.0066667e+00 5.9700000e+00 0.0000000e+00 
6.0066667e+00 5.9900000e+00 0.0000000e+00 
6.0066667e+00 6.0100000e+00 0.0000000e+00 
6.0066667e+00 6.0300000e+00 0.0000000e+00 
6.0333333e+00 5.9700000e+00 0.0000000e+00 
6.0333333e+00 5.9900000e+00 0.0000000e+00 
6.0333333e+00 6.0100000e+00 0.0000000e+00 
6.0333333e+00 6.0300000e+00 0.0000000e+00 
6.0600000e+00 5.9700000e+00 0.0000000e+00 
6.0600000e+00 5.9900000e+00 0.0000000e+00 
6.0600000e+00 6.0100000e+00 0.0000000e+00 
6.0600000e+00 6.0300000e+00 0.0000000e+00 
6.0866667e+00 5.9700000e+00 0.0000000e+00 
6.0866667e+00 5.9900000e+00 0.0000000e+00 
6.0866667e+00 6.0100000e+00 0.0000000e+00 
6.0866667e+00 6.0300000e+00 0.0000000e+00 
6.1133333e+00 5.9700000e+00 0.0000000e+00 
6.1133333e+00 5.9900000e+00 0.0000000e+00 
6.1133333e+00 6.0100000e+00 0.0000000e+00 
6.1133333e+00 6.0300000e+00 0.0000000e+00 
6.1400000e+00 5.9700000e+00 0.0000000e+00 
6.1400000e+00 5.9900000e+00 0.0000000e+00 
6.1400000e+00 6.0100000e+00 0.0000000e+00 
6.1400000e+00 6.0300000e+00 0.0000000e+00 
6.1666667e+00 5.9700000e+00 0.0000000e+00 
6.1666667e+00 5.9900000e+00 0.0000000e+00 
6.1666667e+00 6.0100000e+00 0.0000000e+00 
6.1666667e+00 6.0300000e+00 0.0000000e+00 
6.1933333e+00 5.9700000e+00 0.0000000e+00 
6.1933333e+00 5.9900000e+00 0.0000000e+00 
6.1933333e+00 6.0100000e+00 0.0000000e+00 
6.1933333e+00 6.0300000e+00 0.0000000e+00 
6.2200000e+00 5.9700000e+00 0.0000000e+00 
6.2200000e+00 5.9900000e+00 0.0000000e+00 
6.2200000e+00 6.0100000e+00 0.0000000e+00 
6.2200000e+00 6.0300000e+00 0.0000000e+00 
6.2466667e+00 5.9700000e+00 0.0000000e+00 
6.2466667e+00 5.9900000e+00 0.0000000e+00 
6.2466667e+00 6.0100000e+00 0.0000000e+00 
6.2466667e+00 6.0300000e+00 0.0000000e+00 
6.2733333e+00 5.9700000e+00 0.0000000e+00 
6.2733333e+00 5.9900000e+00 0.0000000e+00 
6.2733333e+00 6.0100000e+00 0.0000000e+00 
6.2733333e+00 6.0300000e+00 0.0000000e+00 
6.3000000e+00 5.9700000e+00 0.0000000e+00 
6.3000000e+00 5.9900000e+00 0.0000000e+00 
6.3000000e+00 6.0100000e+00 0.0000000e+00 
6.3000000e+00 6.0300000e+00 0.0000000e+00 
6.3266667e+00 5.9700000e+00 0.0000000e+00 
6.3266667e+00 5.9900000e+00 0.0000000e+00 
6.3266667e+00 6.0100000e+00 0.0000000e+00 
6.3266667e+00 6.0300000e+00 0.0000000e+00 
6.3533333e+00 5.9700000e+00 0.0000000e+00 
6.3533333e+00 5.9900000e+00 0.0000000e+00 
6.3533333e+00 6.0100000e+00 0.0000000e+00 
6.3533333e+00 6.0300000e+00 0.0000000e+00 
6.3800000e+00 5.9700000e+00 0.0000000e+00 
6.3800000e+00 5.9900000e+00 0.0000000e+00 
6.3800000e+00 6.0100000e+00 0.0000000e+00 
6.3800000e+00 6.0300000e+00 0.0000000e+00 
6.4066667e+00 5.9700000e+00 0.0000000e+00 
6.4066667e+00 5.9900000e+00 0.0000000e+00 
6.4066667e+00 6.0100000e+00 0.0000000e+00 
6.4066667e+00 6.0300000e+00 0.0000000e+00 
6.4333333e+00 5.9700000e+00 0.0000000e+00 
6.4333333e+00 5.9900000e+00 0.0000000e+00 
6.4333333e+00 6.0100000e+00 0.0000000e+00 
6.4333333e+00 6.0300000e+00 0.0000000e+00 
6.4600000e+00 5.9700000e+00 0.0000000e+00 
6.4600000e+00 5.9900000e+00 0.0000000e+00 
6.4600000e+00 6.0100000e+00 0.0000000e+00 
6.4600000e+00 6.0300000e+00 0.0000000e+00 
6.4866667e+00 5.9700000e+00 0.0000000e+00 
6.4866667e+00 5.9900000e+00 0.0000000e+00 
6.4866667e+00 6.0100000e+00 0.0000000e+00 
6.4866667e+00 6.0300000e+00 0.0000000e+00 
6.5133333e+00 5.9700000e+00 0.0000000e+00 
6.5133333e+00 5.9900000e+00 0.0000000e+00 
6.5133333e+00 6.0100000e+00 0.0000000e+00 
6.5133333e+00 6.0300000e+00 0.0000000e+00 
6.5400000e+00 5.9700000e+00 0.0000000e+00 
6.5400000e+00 5.9900000e+00 0.0000000e+00 
6.5400000e+00 6.0100000e+00 0.0000000e+00 
6.5400000e+00 6.0300000e+00 0.0000000e+00 
6.5666667e+00 5.9700000e+00 0.0000000e+00 
6.5666667e+00 5.9900000e+00 0.0000000e+00 
6.5666667e+00 6.0100000e+00 0.0000000e+00 
6.5666667e+00 6.0300000e+00 0.0000000e+00 
6.5933333e+00 5.9700000e+00 0.0000000e+00 
6.5933333e+00 5.9900000e+00 0.0000000e+00 
6.5933333e+00 6.0100000e+00 0.0000000e+00 
6.5933333e+00 6.0300000e+00 0.0000000e+00 
6.6200000e+00 5.9700000e+00 0.0000000e+00 
6.6200000e+00 5.9900000e+00 0.0000000e+00 
6.6200000e+00 6.0100000e+00 0.0000000e+00 
6.6200000e+00 6.0300000e+00 0.0000000e+00 
6.6466667e+00 5.9700000e+00 0.0000000e+00 
6.6466667e+00 5.9900000e+00 0.0000000e+00 
6.6466667e+00 6.0100000e+00 0.0000000e+00 
6.6466667e+00 6.0300000e+00 0.0000000e+00 
6.6733333e+00 5.9700000e+00 0.0000000e+00 
6.6733333e+00 5.9900000e+00 0.0000000e+00 
6.6733333e+00 6.0100000e+00 0.0000000e+00 
6.6733333e+00 6.0300000e+00 0.0000000e+00 
6.7000000e+00 5.9700000e+00 0.0000000e+00 
6.7000000e+00 5.9900000e+00 0.0000000e+00 
6.7000000e+00 6.0100000e+00 0.0000000e+00 
6.7000000e+00 6.0300000e+00 0.0000000e+00 
6.7266667e+00 5.9700000e+00 0.0000000e+00 
6.7266667e+00 5.9900000e+00 0.0000000e+00 
6.7266667e+00 6.0100000e+00 0.0000000e+00 
6.7266667e+00 6.0300000e+00 0.0000000e+00 
6.7533333e+00 5.9700000e+00 0.0000000e+00 
6.7533333e+00 5.9900000e+00 0.0000000e+00 
6.7533333e+00 6.0100000e+00 0.0000000e+00 
6.7533333e+00 6.0300000e+00 0.0000000e+00 
6.7800000e+00 5.9700000e+00 0.0000000e+00 
6.7800000e+00 5.9900000e+00 0.0000000e+00 
6.7800000e+00 6.0100000e+00 0.0000000e+00 
6.7800000e+00 6.0300000e+00 0.0000000e+00 
6.8066667e+00 5.9700000e+00 0.0000000e+00 
6.8066667e+00 5.9900000e+00 0.0000000e+00 
6.8066667e+00 6.0100000e+00 0.0000000e+00 
6.8066667e+00 6.0300000e+00 0.0000000e+00 
6.8333333e+00 5.9700000e+00 0.0000000e+00 
6.8333333e+00 5.9900000e+00 0.0000000e+00 
6.8333333e+00 6.0100000e+00 0.0000000e+00 
6.8333333e+00 6.0300000e+00 0.0000000e+00 
6.8600000e+00 5.9700000e+00 0.0000000e+00 
6.8600000e+00 5.9900000e+00 0.0000000e+00 
6.8600000e+00 6.0100000e+00 0.0000000e+00 
6.8600000e+00 6.0300000e+00 0.0000000e+00 
6.8866667e+00 5.9700000e+00 0.0000000e+00 
6.8866667e+00 5.9900000e+00 0.0000000e+00 
6.8866667e+00 6.0100000e+00 0.0000000e+00 
6.8866667e+00 6.0300000e+00 0.0000000e+00 
6.9133333e+00 5.9700000e+00 0.0000000e+00 
6.9133333e+00 5.9900000e+00 0.0000000e+00 
6.9133333e+00 6.0100000e+00 0.0000000e+00 
6.9133333e+00 6.0300000e+00 0.0000000e+00 
6.9400000e+00 5.9700000e+00 0.0000000e+00 
6.9400000e+00 5.9900000e+00 0.0000000e+00 
6.9400000e+00 6.0100000e+00 0.0000000e+00 
6.9400000e+00 6.0300000e+00 0.0000000e+00 
6.9666667e+00 5.9700000e+00 0.0000000e+00 
6.9666667e+00 5.9900000e+00 0.0000000e+00 
6.9666667e+00 6.0100000e+00 0.0000000e+00 
6.9666667e+00 6.0300000e+00 0.0000000e+00 
6.9933333e+00 5.9700000e+00 0.0000000e+00 
6.9933333e+00 5.9900000e+00 0.0000000e+00 
6.9933333e+00 6.0100000e+00 0.0000000e+00 
6.9933333e+00 6.0300000e+00 0.0000000e+00 
7.0200000e+00 5.9700000e+00 0.0000000e+00 
7.0200000e+00 5.9900000e+00 0.0000000e+00 
[...]
POINT_DATA 604
FIELD FieldData 2
DISPLACEMENT 3 604  float
0.0000000e+00 0.0000000e+00 0.0000000e+00 
0.0000000e+00 0.0000000e+00 0.0000000e+00 
-1.1428121e-04 -6.8689766e-05 0.0000000e+00 
-3.6494085e-05 -4.4941144e-05 0.0000000e+00 
0.0000000e+00 0.0000000e+00 0.0000000e+00 
3.5786476e-05 -4.5116844e-05 0.0000000e+00 
-2.3053792e-04 -2.2003710e-04 0.0000000e+00 
-7.7461789e-05 -2.0100698e-04 0.0000000e+00 
0.0000000e+00 0.0000000e+00 0.0000000e+00 
1.1343808e-04 -6.9152891e-05 0.0000000e+00 
7.5266150e-05 -2.0165011e-04 0.0000000e+00 
-3.4568298e-04 -4.7565395e-04 0.0000000e+00 
2.2804049e-04 -2.2188779e-04 0.0000000e+00 
-1.1654621e-04 -4.5725350e-04 0.0000000e+00 
1.1132943e-04 -4.5860632e-04 0.0000000e+00 
3.3999859e-04 -4.7964678e-04 0.0000000e+00 
-4.5975206e-04 -8.3046364e-04 0.0000000e+00 
-1.5635396e-04 -8.1346844e-04 0.0000000e+00 
1.4582388e-04 -8.1580072e-04 0.0000000e+00 
4.4862218e-04 -8.3740980e-04 0.0000000e+00 
-5.7319558e-04 -1.2829552e-03 0.0000000e+00 
-1.9690562e-04 -1.2675595e-03 0.0000000e+00 
1.7809848e-04 -1.2711227e-03 0.0000000e+00 
5.5366298e-04 -1.2936023e-03 0.0000000e+00 
-6.8633958e-04 -1.8312455e-03 0.0000000e+00 
-2.3856507e-04 -1.8176854e-03 0.0000000e+00 
2.0787279e-04 -1.8227134e-03 0.0000000e+00 
6.5480328e-04 -1.8462962e-03 0.0000000e+00 
-7.9950368e-04 -2.4735014e-03 0.0000000e+00 
-2.8163637e-04 -2.4619929e-03 0.0000000e+00 
2.3484642e-04 -2.4687051e-03 0.0000000e+00 
7.5175876e-04 -2.4936135e-03 0.0000000e+00 
-9.1298751e-04 -3.2079001e-03 0.0000000e+00 
-3.2640827e-04 -3.1986454e-03 0.0000000e+00 
2.5874230e-04 -3.2072471e-03 0.0000000e+00 
8.4426293e-04 -3.2336892e-03 0.0000000e+00 
-1.0270722e-03 -4.0326335e-03 0.0000000e+00 
-3.7315055e-04 -4.0258211e-03 0.0000000e+00 
2.7930175e-04 -4.0365037e-03 0.0000000e+00 
9.3206822e-04 -4.0646738e-03 0.0000000e+00 
-1.1420207e-03 -4.9459077e-03 0.0000000e+00 
-4.2211501e-04 -4.9417125e-03 0.0000000e+00 
2.9628427e-04 -4.9546542e-03 0.0000000e+00 
1.0149451e-03 -4.9847333e-03 0.0000000e+00 
-1.2580790e-03 -5.9459430e-03 0.0000000e+00 
-4.7353587e-04 -5.9445273e-03 0.0000000e+00 
3.0946679e-04 -5.9598934e-03 0.0000000e+00 
1.0926819e-03 -5.9920494e-03 0.0000000e+00 
-1.3754754e-03 -7.0309744e-03 0.0000000e+00 
-5.2763057e-04 -7.0324877e-03 0.0000000e+00 
3.1864332e-04 -7.0504310e-03 0.0000000e+00 
1.1650835e-03 -7.0848197e-03 0.0000000e+00 
-1.4944229e-03 -8.1992513e-03 0.0000000e+00 
-5.8460012e-04 -8.2038312e-03 0.0000000e+00 
3.2362422e-04 -8.2244923e-03 0.0000000e+00 
1.2319719e-03 -8.2612572e-03 0.0000000e+00 
-1.6151183e-03 -9.4490379e-03 0.0000000e+00 
-6.4462989e-04 -9.4568101e-03 0.0000000e+00 
3.2423582e-04 -9.4803181e-03 0.0000000e+00 
1.2931848e-03 -9.5195910e-03 0.0000000e+00 
-1.7377438e-03 -1.0778613e-02 0.0000000e+00 
-7.0788994e-04 -1.0789692e-02 0.0000000e+00 
3.2031971e-04 -1.0816165e-02 0.0000000e+00 
1.3485755e-03 -1.0858067e-02 0.0000000e+00 
-1.8624664e-03 -1.2186272e-02 0.0000000e+00 
-7.7453566e-04 -1.2200761e-02 0.0000000e+00 
3.1173234e-04 -1.2230305e-02 0.0000000e+00 
1.3980121e-03 -1.2274946e-02 0.0000000e+00 
-1.9894394e-03 -1.3670322e-02 0.0000000e+00 
-8.4470826e-04 -1.3688316e-02 0.0000000e+00 
2.9834443e-04 -1.3721028e-02 0.0000000e+00 
1.4413771e-03 -1.3768506e-02 0.0000000e+00 
-2.1188026e-03 -1.5229091e-02 0.0000000e+00 
-9.1853524e-04 -1.5250670e-02 0.0000000e+00 
2.8004046e-04 -1.5286636e-02 0.0000000e+00 
1.4785669e-03 -1.5337042e-02 0.0000000e+00 
-2.2506825e-03 -1.6860916e-02 0.0000000e+00 
-9.9613104e-04 -1.6886156e-02 0.0000000e+00 
2.5671820e-04 -1.6925453e-02 0.0000000e+00 
1.5094914e-03 -1.6978866e-02 0.0000000e+00 
-2.3851931e-03 -1.8564156e-02 0.0000000e+00 
-1.0775975e-03 -1.8593119e-02 0.0000000e+00 
2.2828822e-04 -1.8635814e-02 0.0000000e+00 
1.5340733e-03 -1.8692304e-02 0.0000000e+00 
-2.5224375e-03 -2.0337181e-02 0.0000000e+00 
-1.1630243e-03 -2.0369923e-02 0.0000000e+00 
1.9467335e-04 -2.0416074e-02 0.0000000e+00 
1.5522482e-03 -2.0475703e-02 0.0000000e+00 
-2.6625062e-03 -2.2178382e-02 0.0000000e+00 
-1.2524894e-03 -2.2214948e-02 0.0000000e+00 
1.5580817e-04 -2.2264605e-02 0.0000000e+00 
1.5639631e-03 -2.2327425e-02 0.0000000e+00 
-2.8054783e-03 -2.4086161e-02 0.0000000e+00 
-1.3460596e-03 -2.4126590e-02 0.0000000e+00 
1.1163854e-04 -2.4179794e-02 0.0000000e+00 
1.5691760e-03 -2.4245851e-02 0.0000000e+00 
-2.9514226e-03 -2.6058941e-02 0.0000000e+00 
-1.4437905e-03 -2.6103263e-02 0.0000000e+00 
6.2121076e-05 -2.6160047e-02 0.0000000e+00 
1.5678564e-03 -2.6229377e-02 0.0000000e+00 
-3.1003959e-03 -2.8095158e-02 0.0000000e+00 
-1.5457276e-03 -2.8143395e-02 0.0000000e+00 
7.2228794e-06 -2.8203785e-02 0.0000000e+00 
1.5599831e-03 -2.8276417e-02 0.0000000e+00 
-3.2524469e-03 -3.0193266e-02 0.0000000e+00 
-1.6519064e-03 -3.0245432e-02 0.0000000e+00 
-5.3079025e-05 -3.0309447e-02 0.0000000e+00 
1.5455460e-03 -3.0385402e-02 0.0000000e+00 
-3.4076145e-03 -3.2351733e-02 0.0000000e+00 
-1.7623529e-03 -3.2407837e-02 0.0000000e+00 
-1.1879797e-04 -3.2475489e-02 0.0000000e+00 
1.5245442e-03 -3.2554782e-02 0.0000000e+00 
-3.5659289e-03 -3.4569046e-02 0.0000000e+00 
-1.8770842e-03 -3.4629090e-02 0.0000000e+00 
-1.8993823e-04 -3.4700382e-02 0.0000000e+00 
1.4969863e-03 -3.4783021e-02 0.0000000e+00 
-3.7274113e-03 -3.6843707e-02 0.0000000e+00 
-1.9961089e-03 -3.6907686e-02 0.0000000e+00 
-2.6649536e-04 -3.6982618e-02 0.0000000e+00 
1.4628896e-03 -3.7068604e-02 0.0000000e+00 
-3.8920753e-03 -3.9174237e-02 0.0000000e+00 
-2.1194273e-03 -3.9242138e-02 0.0000000e+00 
-3.4845669e-04 -3.9320703e-02 0.0000000e+00 
1.4222797e-03 -3.9410033e-02 0.0000000e+00 
-4.0599264e-03 -4.1559171e-02 0.0000000e+00 
-2.2470317e-03 -4.1630979e-02 0.0000000e+00 
-4.3580161e-04 -4.1713162e-02 0.0000000e+00 
1.3751900e-03 -4.1805826e-02 0.0000000e+00 
-4.2309626e-03 -4.3997063e-02 0.0000000e+00 
-2.3789073e-03 -4.4072755e-02 0.0000000e+00 
-5.2850204e-04 -4.4158538e-02 0.0000000e+00 
1.3216618e-03 -4.4254521e-02 0.0000000e+00 
-4.4051757e-03 -4.6486483e-02 0.0000000e+00 
-2.5150320e-03 -4.6566032e-02 0.0000000e+00 
-6.2652280e-04 -4.6655391e-02 0.0000000e+00 
1.2617434e-03 -4.6754672e-02 0.0000000e+00 
-4.5825501e-03 -4.9026019e-02 0.0000000e+00 
-2.6553773e-03 -4.9109393e-02 0.0000000e+00 
-7.2982197e-04 -4.9202300e-02 0.0000000e+00 
1.1954899e-03 -4.9304853e-02 0.0000000e+00 
-4.7630644e-03 -5.1614277e-02 0.0000000e+00 
-2.7999086e-03 -5.1701438e-02 0.0000000e+00 
-8.3835121e-04 -5.1797859e-02 0.0000000e+00 
1.1229631e-03 -5.1903656e-02 0.0000000e+00 
-4.9466932e-03 -5.4249880e-02 0.0000000e+00 
-2.9485852e-03 -5.4340787e-02 0.0000000e+00 
-9.5205624e-04 -5.4440685e-02 0.0000000e+00 
1.0442314e-03 -5.4549690e-02 0.0000000e+00 
-5.1334037e-03 -5.6931469e-02 0.0000000e+00 
-3.1013611e-03 -5.7026076e-02 0.0000000e+00 
-1.0708772e-03 -5.7129409e-02 0.0000000e+00 
9.5936811e-04 -5.7241585e-02 0.0000000e+00 
-5.3231580e-03 -5.9657703e-02 0.0000000e+00 
-3.2581849e-03 -5.9755962e-02 0.0000000e+00 
-1.1947490e-03 -5.9862684e-02 0.0000000e+00 
8.6845182e-04 -5.9977989e-02 0.0000000e+00 
-5.5159139e-03 -6.2427259e-02 0.0000000e+00 
-3.4190000e-03 -6.2529117e-02 0.0000000e+00 
-1.3236018e-03 -6.2639180e-02 0.0000000e+00 
7.7156616e-04 -6.2757568e-02 0.0000000e+00 
-5.7116220e-03 -6.5238832e-02 0.0000000e+00 
-3.5837452e-03 -6.5344234e-02 0.0000000e+00 
-1.4573608e-03 -6.5457584e-02 0.0000000e+00 
6.6879857e-04 -6.5579006e-02 0.0000000e+00 
-5.9102314e-03 -6.8091134e-02 0.0000000e+00 
-3.7523551e-03 -6.8200019e-02 0.0000000e+00 
-1.5959472e-03 -6.8316602e-02 0.0000000e+00 
5.6024186e-04 -6.8441006e-02 0.0000000e+00 
-6.1116865e-03 -7.0982894e-02 0.0000000e+00 
-3.9247604e-03 -7.1095201e-02 0.0000000e+00 
-1.7392776e-03 -7.1214958e-02 0.0000000e+00 
4.4599288e-04 -7.1342288e-02 0.0000000e+00 
-6.3159289e-03 -7.3912861e-02 0.0000000e+00 
-4.1008883e-03 -7.4028524e-02 0.0000000e+00 
-1.8872655e-03 -7.4151394e-02 0.0000000e+00 
3.2615235e-04 -7.4281594e-02 0.0000000e+00 
-6.5228961e-03 -7.6879800e-02 0.0000000e+00 
-4.2806625e-03 -7.6998753e-02 0.0000000e+00 
-2.0398205e-03 -7.7124673e-02 0.0000000e+00 
2.0082438e-04 -7.7257683e-02 0.0000000e+00 
-6.7325232e-03 -7.9882498e-02 0.0000000e+00 
-4.4640039e-03 -8.0004671e-02 0.0000000e+00 
-2.1968494e-03 -8.0133574e-02 0.0000000e+00 
7.0116354e-05 -8.0269332e-02 0.0000000e+00 
-6.9447424e-03 -8.2919756e-02 0.0000000e+00 
-4.6508305e-03 -8.3045078e-02 0.0000000e+00 
-2.3582560e-03 -8.3176897e-02 0.0000000e+00 
-6.5861500e-05 -8.3315339e-02 0.0000000e+00 
-7.1594833e-03 -8.5990398e-02 0.0000000e+00 
-4.8410578e-03 -8.6118794e-02 0.0000000e+00 
-2.5239416e-03 -8.6253460e-02 0.0000000e+00 
-2.0699621e-04 -8.6394520e-02 0.0000000e+00 
-7.3766740e-03 -8.9093263e-02 0.0000000e+00 
-5.0345990e-03 -8.9224659e-02 0.0000000e+00 
-2.6938050e-03 -8.9362101e-02 0.0000000e+00 
-3.5317237e-04 -8.9505711e-02 0.0000000e+00 
-7.5962402e-03 -9.2227211e-02 0.0000000e+00 
-5.2313657e-03 -9.2361532e-02 0.0000000e+00 
-2.8677433e-03 -9.2501677e-02 0.0000000e+00 
-5.0427252e-04 -9.2647769e-02 0.0000000e+00 
-7.8181064e-03 -9.5391122e-02 0.0000000e+00 
-5.4312674e-03 -9.5528289e-02 0.0000000e+00 
-3.0456515e-03 -9.5671063e-02 0.0000000e+00 
-6.6017731e-04 -9.5819567e-02 0.0000000e+00 
-8.0421951e-03 -9.8583892e-02 0.0000000e+00 
-5.6342124e-03 -9.8723827e-02 0.0000000e+00 
-3.2274234e-03 -9.8869156e-02 0.0000000e+00 
-8.2076582e-04 -9.9020001e-02 0.0000000e+00 
-8.2684280e-03 -1.0180444e-01 0.0000000e+00 
-5.8401080e-03 -1.0194706e-01 0.0000000e+00 
-3.4129512e-03 -1.0209487e-01 0.0000000e+00 
-9.8591570e-04 -1.0224799e-01 0.0000000e+00 
-8.4967281e-03 -1.0505170e-01 0.0000000e+00 
-6.0488605e-03 -1.0519693e-01 0.0000000e+00 
-3.6021261e-03 -1.0534714e-01 0.0000000e+00 
-1.1555026e-03 -1.0550246e-01 0.0000000e+00 
-8.7270155e-03 -1.0832464e-01 0.0000000e+00 
-6.2603754e-03 -1.0847239e-01 0.0000000e+00 
-3.7948387e-03 -1.0862493e-01 0.0000000e+00 
-1.3294022e-03 -1.0878237e-01 0.0000000e+00 
-8.9592097e-03 -1.1162222e-01 0.0000000e+00 
-6.4745577e-03 -1.1177242e-01 0.0000000e+00 
-3.9909789e-03 -1.1192721e-01 0.0000000e+00 
-1.5074899e-03 -1.1208670e-01 0.0000000e+00 
-9.1932305e-03 -1.1494345e-01 0.0000000e+00 
-6.6913114e-03 -1.1509601e-01 0.0000000e+00 
-4.1904364e-03 -1.1525297e-01 0.0000000e+00 
-1.6896403e-03 -1.1541444e-01 0.0000000e+00 
-9.4289943e-03 -1.1828733e-01 0.0000000e+00 
-6.9105405e-03 -1.1844218e-01 0.0000000e+00 
-4.3931006e-03 -1.1860124e-01 0.0000000e+00 
-1.8757290e-03 -1.1876460e-01 0.0000000e+00 
-9.6664208e-03 -1.2165291e-01 0.0000000e+00 
-7.1321488e-03 -1.2180997e-01 0.0000000e+00 
-4.5988606e-03 -1.2197104e-01 0.0000000e+00 
-2.0656301e-03 -1.2213624e-01 0.0000000e+00 
-9.9054291e-03 -1.2503924e-01 0.0000000e+00 
-7.3560406e-03 -1.2519842e-01 0.0000000e+00 
-4.8076056e-03 -1.2536143e-01 0.0000000e+00 
-2.2592179e-03 -1.2552838e-01 0.0000000e+00 
-1.0145939e-02 -1.2844539e-01 0.0000000e+00 
-7.5821204e-03 -1.2860661e-01 0.0000000e+00 
-5.0192252e-03 -1.2877148e-01 0.0000000e+00 
-2.4563671e-03 -1.2894012e-01 0.0000000e+00 
-1.0387871e-02 -1.3187046e-01 0.0000000e+00 
-7.8102935e-03 -1.3203364e-01 0.0000000e+00 
-5.2336095e-03 -1.3220030e-01 0.0000000e+00 
-2.6569525e-03 -1.3237055e-01 0.0000000e+00 
-1.0631145e-02 -1.3531356e-01 0.0000000e+00 
-8.0404655e-03 -1.3547862e-01 0.0000000e+00 
-5.4506491e-03 -1.3564699e-01 0.0000000e+00 
-2.8608497e-03 -1.3581877e-01 0.0000000e+00 
-1.0875685e-02 -1.3877382e-01 0.0000000e+00 
-8.2725433e-03 -1.3894068e-01 0.0000000e+00 
-5.6702355e-03 -1.3911068e-01 0.0000000e+00 
-3.0679351e-03 -1.3928394e-01 0.0000000e+00 
-1.1121412e-02 -1.4225041e-01 0.0000000e+00 
-8.5064345e-03 -1.4241898e-01 0.0000000e+00 
-5.8922612e-03 -1.4259055e-01 0.0000000e+00 
-3.2780858e-03 -1.4276520e-01 0.0000000e+00 
-1.1368251e-02 -1.4574248e-01 0.0000000e+00 
-8.7420482e-03 -1.4591270e-01 0.0000000e+00 
-6.1166195e-03 -1.4608575e-01 0.0000000e+00 
-3.4911800e-03 -1.4626173e-01 0.0000000e+00 
-1.1616129e-02 -1.4924924e-01 0.0000000e+00 
-8.9792947e-03 -1.4942103e-01 0.0000000e+00 
-6.3432054e-03 -1.4959550e-01 0.0000000e+00 
-3.7070963e-03 -1.4977274e-01 0.0000000e+00 
-1.1864973e-02 -1.5276991e-01 0.0000000e+00 
-9.2180860e-03 -1.5294319e-01 0.0000000e+00 
-6.5719150e-03 -1.5311900e-01 0.0000000e+00 
-3.9257157e-03 -1.5329743e-01 0.0000000e+00 
-1.2114712e-02 -1.5630371e-01 0.0000000e+00 
-9.4583351e-03 -1.5647841e-01 0.0000000e+00 
-6.8026462e-03 -1.5665549e-01 0.0000000e+00 
-4.1469208e-03 -1.5683505e-01 0.0000000e+00 
-1.2365275e-02 -1.5984992e-01 0.0000000e+00 
-9.6999563e-03 -1.6002596e-01 0.0000000e+00 
-7.0352986e-03 -1.6020424e-01 0.0000000e+00 
-4.3705958e-03 -1.6038486e-01 0.0000000e+00 
-1.2616592e-02 -1.6340779e-01 0.0000000e+00 
-9.9428657e-03 -1.6358511e-01 0.0000000e+00 
-7.2697731e-03 -1.6376453e-01 0.0000000e+00 
-4.5966278e-03 -1.6394614e-01 0.0000000e+00 
-1.2868595e-02 -1.6697664e-01 0.0000000e+00 
-1.0186981e-02 -1.6715516e-01 0.0000000e+00 
-7.5059725e-03 -1.6733565e-01 0.0000000e+00 
-4.8249043e-03 -1.6751820e-01 0.0000000e+00 
-1.3121220e-02 -1.7055577e-01 0.0000000e+00 
-1.0432221e-02 -1.7073542e-01 0.0000000e+00 
-7.7438014e-03 -1.7091691e-01 0.0000000e+00 
-5.0553146e-03 -1.7110033e-01 0.0000000e+00 
-1.3374404e-02 -1.7414452e-01 0.0000000e+00 
-1.0678509e-02 -1.7432524e-01 0.0000000e+00 
-7.9831662e-03 -1.7450767e-01 0.0000000e+00 
-5.2877500e-03 -1.7469190e-01 0.0000000e+00 
-1.3628086e-02 -1.7774225e-01 0.0000000e+00 
-1.0925767e-02 -1.7792396e-01 0.0000000e+00 
-8.2239754e-03 -1.7810728e-01 0.0000000e+00 
-5.5221040e-03 -1.7829226e-01 0.0000000e+00 
-1.3882205e-02 -1.8134833e-01 0.0000000e+00 
-1.1173922e-02 -1.8153098e-01 0.0000000e+00 
-8.4661397e-03 -1.8171511e-01 0.0000000e+00 
-5.7582720e-03 -1.8190079e-01 0.0000000e+00 
-1.4136707e-02 -1.8496216e-01 0.0000000e+00 
-1.1422901e-02 -1.8514568e-01 0.0000000e+00 
-8.7095720e-03 -1.8533057e-01 0.0000000e+00 
-5.9961519e-03 -1.8551690e-01 0.0000000e+00 
-1.4391534e-02 -1.8858315e-01 0.0000000e+00 
-1.1672635e-02 -1.8876749e-01 0.0000000e+00 
-8.9541872e-03 -1.8895307e-01 0.0000000e+00 
-6.2356437e-03 -1.8913999e-01 0.0000000e+00 
-1.4646635e-02 -1.9221075e-01 0.0000000e+00 
-1.1923056e-02 -1.9239583e-01 0.0000000e+00 
-9.1999028e-03 -1.9258207e-01 0.0000000e+00 
-6.4766499e-03 -1.9276952e-01 0.0000000e+00 
-1.4901960e-02 -1.9584440e-01 0.0000000e+00 
-1.2174098e-02 -1.9603018e-01 0.0000000e+00 
-9.4466386e-03 -1.9621701e-01 0.0000000e+00 
-6.7190753e-03 -1.9640495e-01 0.0000000e+00 
-1.5157459e-02 -1.9948359e-01 0.0000000e+00 
-1.2425698e-02 -1.9967000e-01 0.0000000e+00 
-9.6943165e-03 -1.9985737e-01 0.0000000e+00 
-6.9628273e-03 -2.0004576e-01 0.0000000e+00 
-1.5413087e-02 -2.0312780e-01 0.0000000e+00 
-1.2677796e-02 -2.0331480e-01 0.0000000e+00 
-9.9428611e-03 -2.0350266e-01 0.0000000e+00 
-7.2078155e-03 -2.0369144e-01 0.0000000e+00 
-1.5668800e-02 -2.0677656e-01 0.0000000e+00 
-1.2930333e-02 -2.0696409e-01 0.0000000e+00 
-1.0192199e-02 -2.0715239e-01 0.0000000e+00 
-7.4539524e-03 -2.0734152e-01 0.0000000e+00 
-1.5924560e-02 -2.1042940e-01 0.0000000e+00 
-1.3183254e-02 -2.1061741e-01 0.0000000e+00 
-1.0442261e-02 -2.1080611e-01 0.0000000e+00 
-7.7011517e-03 -2.1099554e-01 0.0000000e+00 
-1.6180326e-02 -2.1408587e-01 0.0000000e+00 
-1.3436506e-02 -2.1427431e-01 0.0000000e+00 
-1.0692977e-02 -2.1446336e-01 0.0000000e+00 
-7.9493311e-03 -2.1465306e-01 0.0000000e+00 
-1.6436062e-02 -2.1774555e-01 0.0000000e+00 
-1.3690037e-02 -2.1793438e-01 0.0000000e+00 
-1.0944284e-02 -2.1812373e-01 0.0000000e+00 
-8.1984114e-03 -2.1831366e-01 0.0000000e+00 
-1.6691734e-02 -2.2140803e-01 0.0000000e+00 
-1.3943800e-02 -2.2159720e-01 0.0000000e+00 
-1.1196118e-02 -2.2178682e-01 0.0000000e+00 
-8.4483157e-03 -2.2197694e-01 0.0000000e+00 
-1.6947307e-02 -2.2507292e-01 0.0000000e+00 
-1.4197747e-02 -2.2526239e-01 0.0000000e+00 
-1.1448420e-02 -2.2545224e-01 0.0000000e+00 
-8.6989711e-03 -2.2564252e-01 0.0000000e+00 
-1.7202751e-02 -2.2873985e-01 0.0000000e+00 
-1.4451833e-02 -2.2892959e-01 0.0000000e+00 
-1.1701131e-02 -2.2911963e-01 0.0000000e+00 
-8.9503060e-03 -2.2931002e-01 0.0000000e+00 
-1.7458038e-02 -2.3240848e-01 0.0000000e+00 
-1.4706019e-02 -2.3259843e-01 0.0000000e+00 
-1.1954196e-02 -2.3278863e-01 0.0000000e+00 
-9.2022514e-03 -2.3297911e-01 0.0000000e+00 
-1.7713143e-02 -2.3607845e-01 0.0000000e+00 
-1.4960263e-02 -2.3626859e-01 0.0000000e+00 
-1.2207563e-02 -2.3645891e-01 0.0000000e+00 
-9.4547409e-03 -2.3664945e-01 0.0000000e+00 
-1.7968041e-02 -2.3974947e-01 0.0000000e+00 
-1.5214530e-02 -2.3993975e-01 0.0000000e+00 
-1.2461181e-02 -2.4013016e-01 0.0000000e+00 
-9.7077110e-03 -2.4032073e-01 0.0000000e+00 
-1.8222712e-02 -2.4342122e-01 0.0000000e+00 
-1.5468784e-02 -2.4361162e-01 0.0000000e+00 
-1.2715003e-02 -2.4380209e-01 0.0000000e+00 
-9.9611010e-03 -2.4399267e-01 0.0000000e+00 
-1.8477135e-02 -2.4709343e-01 0.0000000e+00 
-1.5722993e-02 -2.4728391e-01 0.0000000e+00 
-1.2968983e-02 -2.4747441e-01 0.0000000e+00 
-1.0214853e-02 -2.4766497e-01 0.0000000e+00 
-1.8731294e-02 -2.5076584e-01 0.0000000e+00 
-1.5977128e-02 -2.5095637e-01 0.0000000e+00 
-1.3223079e-02 -2.5114688e-01 0.0000000e+00 
-1.0468911e-02 -2.5133739e-01 0.0000000e+00 
-1.8985172e-02 -2.5443818e-01 0.0000000e+00 
-1.6231160e-02 -2.5462874e-01 0.0000000e+00 
-1.3477250e-02 -2.5481923e-01 0.0000000e+00 
-1.0723223e-02 -2.5500968e-01 0.0000000e+00 
-1.9238758e-02 -2.5811025e-01 0.0000000e+00 
-1.6485064e-02 -2.5830080e-01 0.0000000e+00 
-1.3731458e-02 -2.5849125e-01 0.0000000e+00 
-1.0977737e-02 -2.5868161e-01 0.0000000e+00 
-1.9492041e-02 -2.6178181e-01 0.0000000e+00 
-1.6738817e-02 -2.6197234e-01 0.0000000e+00 
-1.3985668e-02 -2.6216272e-01 0.0000000e+00 
-1.1232407e-02 -2.6235298e-01 0.0000000e+00 
-1.9745011e-02 -2.6545268e-01 0.0000000e+00 
-1.6992398e-02 -2.6564316e-01 0.0000000e+00 
-1.4239847e-02 -2.6583346e-01 0.0000000e+00 
-1.1487187e-02 -2.6602360e-01 0.0000000e+00 
-1.9997661e-02 -2.6912266e-01 0.0000000e+00 
-1.7245787e-02 -2.6931307e-01 0.0000000e+00 
-1.4493965e-02 -2.6950327e-01 0.0000000e+00 
-1.1742035e-02 -2.6969328e-01 0.0000000e+00 
-2.0249981e-02 -2.7279160e-01 0.0000000e+00 
-1.7498967e-02 -2.7298192e-01 0.0000000e+00 
-1.4747992e-02 -2.7317200e-01 0.0000000e+00 
-1.1996913e-02 -2.7336186e-01 0.0000000e+00 
-2.0501967e-02 -2.7645933e-01 0.0000000e+00 
-1.7751920e-02 -2.7664955e-01 0.0000000e+00 
-1.5001903e-02 -2.7683950e-01 0.0000000e+00 
-1.2251785e-02 -2.7702919e-01 0.0000000e+00 
-2.0753615e-02 -2.8012572e-01 0.0000000e+00 
-1.8004635e-02 -2.8031582e-01 0.0000000e+00 
-1.5255673e-02 -2.8050562e-01 0.0000000e+00 
-1.2506614e-02 -2.8069514e-01 0.0000000e+00 
-2.1004925e-02 -2.8379064e-01 0.0000000e+00 
-1.8257098e-02 -2.8398060e-01 0.0000000e+00 
-1.5509280e-02 -2.8417024e-01 0.0000000e+00 
-1.2761368e-02 -2.8435958e-01 0.0000000e+00 
-2.1255895e-02 -2.8745398e-01 0.0000000e+00 
-1.8509299e-02 -2.8764379e-01 0.0000000e+00 
-1.5762703e-02 -2.8783326e-01 0.0000000e+00 
-1.3016017e-02 -2.8802241e-01 0.0000000e+00 
-2.1506528e-02 -2.9111564e-01 0.0000000e+00 
-1.8761231e-02 -2.9130528e-01 0.0000000e+00 
-1.6015925e-02 -2.9149458e-01 0.0000000e+00 
-1.3270533e-02 -2.9168353e-01 0.0000000e+00 
-2.1756826e-02 -2.9477553e-01 0.0000000e+00 
-1.9012885e-02 -2.9496500e-01 0.0000000e+00 
-1.6268928e-02 -2.9515411e-01 0.0000000e+00 
-1.3524890e-02 -2.9534286e-01 0.0000000e+00 
-2.2006792e-02 -2.9843358e-01 0.0000000e+00 
-1.9264258e-02 -2.9862287e-01 0.0000000e+00 
-1.6521700e-02 -2.9881179e-01 0.0000000e+00 
-1.3779064e-02 -2.9900034e-01 0.0000000e+00 
-2.2256432e-02 -3.0208973e-01 0.0000000e+00 
-1.9515345e-02 -3.0227883e-01 0.0000000e+00 
-1.6774227e-02 -3.0246755e-01 0.0000000e+00 
-1.4033035e-02 -3.0265589e-01 0.0000000e+00 
-2.2505752e-02 -3.0574393e-01 0.0000000e+00 
-1.9766143e-02 -3.0593284e-01 0.0000000e+00 
-1.7026498e-02 -3.0612135e-01 0.0000000e+00 
-1.4286784e-02 -3.0630947e-01 0.0000000e+00 
-2.2754757e-02 -3.0939614e-01 0.0000000e+00 
-2.0016652e-02 -3.0958484e-01 0.0000000e+00 
-1.7278505e-02 -3.0977315e-01 0.0000000e+00 
-1.4540293e-02 -3.0996106e-01 0.0000000e+00 