# vtk DataFile Version 4.0
vtk output
ASCII
DATASET UNSTRUCTURED_GRID
POINTS 604 float
5.5000000e+00 5.9700000e+00 0.0000000e+00 
5.5000000e+00 5.9900000e+00 0.0000000e+00 
5.5266667e+00 5.9700000e+00 0.0000000e+00 
5.5266667e+00 5.9900000e+00 0.0000000e+00 
5.5000000e+00 6.0100000e+00 0.0000000e+00 
5.5266667e+00 6.0100000e+00 0.0000000e+00 
5.5533333e+00 5.9700000e+00 0.0000000e+00 
5.5533333e+00 5.9900000e+00 0.0000000e+00 
5.5000000e+00 6.0300000e+00 0.0000000e+00 
5.5266667e+00 6.0300000e+00 0.0000000e+00 
5.5533333e+00 6.0100000e+00 0.0000000e+00 
5.5800000e+00 5.9700000e+00 0.0000000e+00 
5.5533333e+00 6.0300000e+00 0.0000000e+00 
5.5800000e+00 5.9900000e+00 0.0000000e+00 
5.5800000e+00 6.0100000e+00 0.0000000e+00 
5.5800000e+00 6.0300000e+00 0.0000000e+00 
5.6066667e+00 5.9700000e+00 0.0000000e+00 
5.6066667e+00 5.9900000e+00 0.0000000e+00 
5.6066667e+00 6.0100000e+00 0.0000000e+00 
5.6066667e+00 6.0300000e+00 0.0000000e+00 
5.6333333e+00 5.9700000e+00 0.0000000e+00 
5.6333333e+00 5.9900000e+00 0.0000000e+00 
5.6333333e+00 6.0100000e+00 0.0000000e+00 
5.6333333e+00 6.0300000e+00 0.0000000e+00 
5.6600000e+00 5.9700000e+00 0.0000000e+00 
5.6600000e+00 5.9900000e+00 0.0000000e+00 
5.6600000e+00 6.0100000e+00 0.0000000e+00 
5.6600000e+00 6.0300000e+00 0.0000000e+00 
5.6866667e+00 5.9700000e+00 0.0000000e+00 
5.6866667e+00 5.9900000e+00 0.0000000e+00 
5.6866667e+00 6.0100000e+00 0.0000000e+00 
5.6866667e+00 6.0300000e+00 0.0000000e+00 
5.7133333e+00 5.9700000e+00 0.0000000e+00 
5.7133333e+00 5.9900000e+00 0.0000000e+00 
5.7133333e+00 6.0100000e+00 0.0000000e+00 
5.7133333e+00 6.0300000e+00 0.0000000e+00 
5.7400000e+00 5.9700000e+00 0.0000000e+00 
5.7400000e+00 5.9900000e+00 0.0000000e+00 
5.7400000e+00 6.0100000e+00 0.0000000e+00 
5.7400000e+00 6.0300000e+00 0.0000000e+00 
5.7666667e+00 5.9700000e+00 0.0000000e+00 
5.7666667e+00 5.9900000e+00 0.0000000e+00 
5.7666667e+00 6.0100000e+00 0.0000000e+00 
5.7666667e+00 6.0300000e+00 0.0000000e+00 
5.7933333e+00 5.9700000e+00 0.0000000e+00 
5.7933333e+00 5.9900000e+00 0.0000000e+00 
5.7933333e+00 6.0100000e+00 0.0000000e+00 
5.7933333e+00 6.0300000e+00 0.0000000e+00 
5.8200000e+00 5.9700000e+00 0.0000000e+00 
5.8200000e+00 5.9900000e+00 0.0000000e+00 
5.8200000e+00 6.0100000e+00 0.0000000e+00 
5.8200000e+00 6.0300000e+00 0.0000000e+00 
5.8466667e+00 5.9700000e+00 0.0000000e+00 
5.8466667e+00 5.9900000e+00 0.0000000e+00 
5.8466667e+00 6.0100000e+00 0.0000000e+00 
5.8466667e+00 6.0300000e+00 0.0000000e+00 
5.8733333e+00 5.9700000e+00 0.0000000e+00 
5.8733333e+00 5.9900000e+00 0.0000000e+00 
5.8733333e+00 6.0100000e+00 0.0000000e+00 
5.8733333e+00 6.0300000e+00 0.0000000e+00 
5.9000000e+00 5.9700000e+00 0.0000000e+00 
5.9000000e+00 5.9900000e+00 0.0000000e+00 
5.9000000e+00 6.0100000e+00 0.0000000e+00 
5.9000000e+00 6.0300000e+00 0.0000000e+00 
5.9266667e+00 5.9700000e+00 0.0000000e+00 
5.9266667e+00 5.9900000e+00 0.0000000e+00 
5.9266667e+00 6.0100000e+00 0.0000000e+00 
5.9266667e+00 6.0300000e+00 0.0000000e+00 
5.9533333e+00 5.9700000e+00 0.0000000e+00 
5.9533333e+00 5.9900000e+00 0.0000000e+00 
5.9533333e+00 6.0100000e+00 0.0000000e+00 
5.9533333e+00 6.0300000e+00 0.0000000e+00 
5.9800000e+00 5.9700000e+00 0.0000000e+00 
5.9800000e+00 5.9900000e+00 0.0000000e+00 
5.9800000e+00 6.0100000e+00 0.0000000e+00 
5.9800000e+00 6.0300000e+00 0.0000000e+00 
6.0066667e+00 5.9700000e+00 0.0000000e+00 
6.0066667e+00 5.9900000e+00 0.0000000e+00 
6.0066667e+00 6.0100000e+00 0.0000000e+00 
6.0066667e+00 6.0300000e+00 0.0000000e+00 
6.0333333e+00 5.9700000e+00 0.0000000e+00 
6.0333333e+00 5.9900000e+00 0.0000000e+00 
6.0333333e+00 6.0100000e+00 0.0000000e+00 
6.0333333e+00 6.0300000e+00 0.0000000e+00 
6.0600000e+00 5.9700000e+00 0.0000000e+00 
6.0600000e+00 5.9900000e+00 0.0000000e+00 
6.0600000e+00 6.0100000e+00 0.0000000e+00 
6.0600000e+00 6.0300000e+00 0.0000000e+00 
6.0866667e+00 5.9700000e+00 0.0000000e+00 
6.0866667e+00 5.9900000e+00 0.0000000e+00 
6.0866667e+00 6.0100000e+00 0.0000000e+00 
6.0866667e+00 6.0300000e+00 0.0000000e+00 
6.1133333e+00 5.9700000e+00 0.0000000e+00 
6.1133333e+00 5.9900000e+00 0.0000000e+00 
6.1133333e+00 6.0100000e+00 0.0000000e+00 
6.1133333e+00 6.0300000e+00 0.0000000e+00 
6.1400000e+00 5.9700000e+00 0.0000000e+00 
6.1400000e+00 5.9900000e+00 0.0000000e+00 
6.1400000e+00 6.0100000e+00 0.0000000e+00 
6.1400000e+00 6.0300000e+00 0.0000000e+00 
6.1666667e+00 5.9700000e+00 0.0000000e+00 
6.1666667e+00 5.9900000e+00 0.0000000e+00 
6.1666667e+00 6.0100000e+00 0.0000000e+00 
6.1666667e+00 6.0300000e+00 0.0000000e+00 
6.1933333e+00 5.9700000e+00 0.0000000e+00 
6.1933333e+00 5.9900000e+00 0.0000000e+00 
6.1933333e+00 6.0100000e+00 0.0000000e+00 
6.1933333e+00 6.0300000e+00 0.0000000e+00 
6.2200000e+00 5.9700000e+00 0.0000000e+00 
6.2200000e+00 5.9900000e+00 0.0000000e+00 
6.2200000e+00 6.0100000e+00 0.0000000e+00 
6.2200000e+00 6.0300000e+00 0.0000000e+00 
6.2466667e+00 5.9700000e+00 0.0000000e+00 
6.2466667e+00 5.9900000e+00 0.0000000e+00 
6.2466667e+00 6.0100000e+00 0.0000000e+00 
6.2466667e+00 6.0300000e+00 0.0000000e+00 
6.2733333e+00 5.9700000e+00 0.0000000e+00 
6.2733333e+00 5.9900000e+00 0.0000000e+00 
6.2733333e+00 6.0100000e+00 0.0000000e+00 
6.2733333e+00 6.0300000e+00 0.0000000e+00 
6.3000000e+00 5.9700000e+00 0.0000000e+00 
6.3000000e+00 5.9900000e+00 0.0000000e+00 
6.3000000e+00 6.0100000e+00 0.0000000e+00 
6.3000000e+00 6.0300000e+00 0.0000000e+00 
6.3266667e+00 5.9700000e+00 0.0000000e+00 
6.3266667e+00 5.9900000e+00 0.0000000e+00 
6.3266667e+00 6.0100000e+00 0.0000000e+00 
6.3266667e+00 6.0300000e+00 0.0000000e+00 
6.3533333e+00 5.9700000e+00 0.0000000e+00 
6.3533333e+00 5.9900000e+00 0.0000000e+00 
6.3533333e+00 6.0100000e+00 0.0000000e+00 
6.3533333e+00 6.0300000e+00 0.0000000e+00 
6.3800000e+00 5.9700000e+00 0.0000000e+00 
6.3800000e+00 5.9900000e+00 0.0000000e+00 
6.3800000e+00 6.0100000e+00 0.0000000e+00 
6.3800000e+00 6.0300000e+00 0.0000000e+00 
6.4066667e+00 5.9700000e+00 0.0000000e+00 
6.4066667e+00 5.9900000e+00 0.0000000e+00 
6.4066667e+00 6.0100000e+00 0.0000000e+00 
6.4066667e+00 6.0300000e+00 0.0000000e+00 
6.4333333e+00 5.9700000e+00 0.0000000e+00 
6.4333333e+00 5.9900000e+00 0.0000000e+00 
6.4333333e+00 6.0100000e+00 0.0000000e+00 
6.4333333e+00 6.0300000e+00 0.0000000e+00 
6.4600000e+00 5.9700000e+00 0.0000000e+00 
6.4600000e+00 5.9900000e+00 0.0000000e+00 
6.4600000e+00 6.0100000e+00 0.0000000e+00 
6.4600000e+00 6.0300000e+00 0.0000000e+00 
6.4866667e+00 5.9700000e+00 0.0000000e+00 
6.4866667e+00 5.9900000e+00 0.0000000e+00 
6.4866667e+00 6.0100000e+00 0.0000000e+00 
6.4866667e+00 6.0300000e+00 0.0000000e+00 
6.5133333e+00 5.9700000e+00 0.0000000e+00 
6.5133333e+00 5.9900000e+00 0.0000000e+00 
6.5133333e+00 6.0100000e+00 0.0000000e+00 
6.5133333e+00 6.0300000e+00 0.0000000e+00 
6.5400000e+00 5.9700000e+00 0.0000000e+00 
6.5400000e+00 5.9900000e+00 0.0000000e+00 
6.5400000e+00 6.0100000e+00 0.0000000e+00 
6.5400000e+00 6.0300000e+00 0.0000000e+00 
6.5666667e+00 5.9700000e+00 0.0000000e+00 
6.5666667e+00 5.9900000e+00 0.0000000e+00 
6.5666667e+00 6.0100000e+00 0.0000000e+00 
6.5666667e+00 6.0300000e+00 0.0000000e+00 
6.5933333e+00 5.9700000e+00 0.0000000e+00 
6.5933333e+00 5.9900000e+00 0.0000000e+00 
6.5933333e+00 6.0100000e+00 0.0000000e+00 
6.5933333e+00 6.0300000e+00 0.0000000e+00 
6.6200000e+00 5.9700000e+00 0.0000000e+00 
6.6200000e+00 5.9900000e+00 0.0000000e+00 
6.6200000e+00 6.0100000e+00 0.0000000e+00 
6.6200000e+00 6.0300000e+00 0.0000000e+00 
6.6466667e+00 5.9700000e+00 0.0000000e+00 
6.6466667e+00 5.9900000e+00 0.0000000e+00 
6.6466667e+00 6.0100000e+00 0.0000000e+00 
6.6466667e+00 6.0300000e+00 0.0000000e+00 
6.6733333e+00 5.9700000e+00 0.0000000e+00 
6.6733333e+00 5.9900000e+00 0.0000000e+00 
6.6733333e+00 6.0100000e+00 0.0000000e+00 
6.6733333e+00 6.0300000e+00 0.0000000e+00 
6.7000000e+00 5.9700000e+00 0.0000000e+00 
6.7000000e+00 5.9900000e+00 0.0000000e+00 
6.7000000e+00 6.0100000e+00 0.0000000e+00 
6.7000000e+00 6.0300000e+00 0.0000000e+00 
6.7266667e+00 5.9700000e+00 0.0000000e+00 
6.7266667e+00 5.9900000e+00 0.0000000e+00 
6.7266667e+00 6.0100000e+00 0.0000000e+00 
6.7266667e+00 6.0300000e+00 0.0000000e+00 
6.7533333e+00 5.9700000e+00 0.0000000e+00 
6.7533333e+00 5.9900000e+00 0.0000000e+00 
6.7533333e+00 6.0100000e+00 0.0000000e+00 
6.7533333e+00 6.0300000e+00 0.0000000e+00 
6.7800000e+00 5.9700000e+00 0.0000000e+00 
6.7800000e+00 5.9900000e+00 0.0000000e+00 
6.7800000e+00 6.0100000e+00 0.0000000e+00 
6.7800000e+00 6.0300000e+00 0.0000000e+00 
6.8066667e+00 5.9700000e+00 0.0000000e+00 
6.8066667e+00 5.9900000e+00 0.0000000e+00 
6.8066667e+00 6.0100000e+00 0.0000000e+00 
6.8066667e+00 6.0300000e+00 0.0000000e+00 
6.8333333e+00 5.9700000e+00 0.0000000e+00 
6.8333333e+00 5.9900000e+00 0.0000000e+00 
6.8333333e+00 6.0100000e+00 0.0000000e+00 
6.8333333e+00 6.0300000e+00 0.0000000e+00 
6.8600000e+00 5.9700000e+00 0.0000000e+00 
6.8600000e+00 5.9900000e+00 0.0000000e+00 
6.8600000e+00 6.0100000e+00 0.0000000e+00 
6.8600000e+00 6.0300000e+00 0.0000000e+00 
6.8866667e+00 5.9700000e+00 0.0000000e+00 
6.8866667e+00 5.9900000e+00 0.0000000e+00 
6.8866667e+00 6.0100000e+00 0.0000000e+00 
6.8866667e+00 6.0300000e+00 0.0000000e+00 
6.9133333e+00 5.9700000e+00 0.0000000e+00 
6.9133333e+00 5.9900000e+00 0.0000000e+00 
6.9133333e+00 6.0100000e+00 0.0000000e+00 
6.9133333e+00 6.0300000e+00 0.0000000e+00 
6.9400000e+00 5.9700000e+00 0.0000000e+00 
6.9400000e+00 5.9900000e+00 0.0000000e+00 
6.9400000e+00 6.0100000e+00 0.0000000e+00 
6.9400000e+00 6.0300000e+00 0.0000000e+00 
6.9666667e+00 5.9700000e+00 0.0000000e+00 
6.9666667e+00 5.9900000e+00 0.0000000e+00 
6.9666667e+00 6.0100000e+00 0.0000000e+00 
6.9666667e+00 6.0300000e+00 0.0000000e+00 
6.9933333e+00 5.9700000e+00 0.0000000e+00 
6.9933333e+00 5.9900000e+00 0.0000000e+00 
6.9933333e+00 6.0100000e+00 0.0000000e+00 
6.9933333e+00 6.0300000e+00 0.0000000e+00 
7.0200000e+00 5.9700000e+00 0.0000000e+00 
7.0200000e+00 5.9900000e+00 0.0000000e+00 
[...]
POINT_DATA 604
FIELD FieldData 2
DISPLACEMENT 3 604  float
0.0000000e+00 0.0000000e+00 0.0000000e+00 
0.0000000e+00 0.0000000e+00 0.0000000e+00 
-8.9788973e-05 -5.4015278e-05 0.0000000e+00 
-2.8657287e-05 -3.5303921e-05 0.0000000e+00 
0.0000000e+00 0.0000000e+00 0.0000000e+00 
2.8171127e-05 -3.5400415e-05 0.0000000e+00 
-1.8110406e-04 -1.7307598e-04 0.0000000e+00 
-6.0780618e-05 -1.5798987e-04 0.0000000e+00 
0.0000000e+00 0.0000000e+00 0.0000000e+00 
8.9210607e-05 -5.4261215e-05 0.0000000e+00 
5.9314305e-05 -1.5837315e-04 0.0000000e+00 
-2.7146572e-04 -3.7421449e-04 0.0000000e+00 
1.7945006e-04 -1.7417907e-04 0.0000000e+00 
-9.1309720e-05 -3.5949451e-04 0.0000000e+00 
8.7917015e-05 -3.6031802e-04 0.0000000e+00 
2.6778409e-04 -3.7664379e-04 0.0000000e+00 
-3.6084625e-04 -6.5348942e-04 0.0000000e+00 
-1.2223314e-04 -6.3969982e-04 0.0000000e+00 
1.1549606e-04 -6.4113007e-04 0.0000000e+00 
3.5373786e-04 -6.5774809e-04 0.0000000e+00 
-4.4954748e-04 -1.0097568e-03 0.0000000e+00 
-1.5351405e-04 -9.9700843e-04 0.0000000e+00 
1.4159648e-04 -9.9920186e-04 0.0000000e+00 
4.3718019e-04 -1.0163097e-03 0.0000000e+00 
-5.3777897e-04 -1.4415864e-03 0.0000000e+00 
-1.8538794e-04 -1.4300261e-03 0.0000000e+00 
1.6605223e-04 -1.4331286e-03 0.0000000e+00 
5.1791943e-04 -1.4508721e-03 0.0000000e+00 
-6.2574917e-04 -1.9475928e-03 0.0000000e+00 
-2.1804708e-04 -1.9373542e-03 0.0000000e+00 
1.8867772e-04 -1.9415033e-03 0.0000000e+00 
5.9578638e-04 -1.9600234e-03 0.0000000e+00 
-7.1365441e-04 -2.5264038e-03 0.0000000e+00 
-2.5167550e-04 -2.5176126e-03 0.0000000e+00 
2.0930187e-04 -2.5229374e-03 0.0000000e+00 
6.7062201e-04 -2.5423665e-03 0.0000000e+00 
-8.0168019e-04 -3.1766636e-03 0.0000000e+00 
-2.8644602e-04 -3.1694376e-03 0.0000000e+00 
2.2776425e-04 -3.1760592e-03 0.0000000e+00 
7.4227839e-04 -3.1965214e-03 0.0000000e+00 
-8.9000104e-04 -3.8970327e-03 0.0000000e+00 
-3.2252095e-04 -3.8914819e-03 0.0000000e+00 
2.4391507e-04 -3.8995136e-03 0.0000000e+00 
8.1061792e-04 -3.9211255e-03 0.0000000e+00 
-9.7878195e-04 -4.6861878e-03 0.0000000e+00 
-3.6005228e-04 -4.6824146e-03 0.0000000e+00 
2.5761460e-04 -4.6919623e-03 0.0000000e+00 
8.7551346e-04 -4.7148327e-03 0.0000000e+00 
-1.0681769e-03 -5.5428216e-03 0.0000000e+00 
-3.9918233e-04 -5.5409214e-03 0.0000000e+00 
2.6873300e-04 -5.5520836e-03 0.0000000e+00 
9.3684709e-04 -5.5763143e-03 0.0000000e+00 
-1.1583316e-03 -6.4656429e-03 0.0000000e+00 
-4.4004386e-04 -6.4657038e-03 0.0000000e+00 
2.7714979e-04 -6.4785722e-03 0.0000000e+00 
9.9451091e-04 -6.5042581e-03 0.0000000e+00 
-1.2493821e-03 -7.4533764e-03 0.0000000e+00 
-4.8276072e-04 -7.4554802e-03 0.0000000e+00 
2.8275366e-04 -7.4701398e-03 0.0000000e+00 
1.0484058e-03 -7.4973690e-03 0.0000000e+00 
-1.3414564e-03 -8.5047634e-03 0.0000000e+00 
-5.2744795e-04 -8.5089853e-03 0.0000000e+00 
2.8544195e-04 -8.5255147e-03 0.0000000e+00 
1.0984417e-03 -8.5543689e-03 0.0000000e+00 
-1.4346733e-03 -9.6185613e-03 0.0000000e+00 
-5.7421221e-04 -9.6249703e-03 0.0000000e+00 
2.8512042e-04 -9.6434419e-03 0.0000000e+00 
1.1445366e-03 -9.6739967e-03 0.0000000e+00 
-1.5291439e-03 -1.0793544e-02 0.0000000e+00 
-6.2315213e-04 -1.0802203e-02 0.0000000e+00 
2.8170288e-04 -1.0822683e-02 0.0000000e+00 
1.1866165e-03 -1.0855008e-02 0.0000000e+00 
-1.6249717e-03 -1.2028500e-02 0.0000000e+00 
-6.7435853e-04 -1.2039467e-02 0.0000000e+00 
2.7511084e-04 -1.2062017e-02 0.0000000e+00 
1.2246155e-03 -1.2096176e-02 0.0000000e+00 
-1.7222523e-03 -1.3322236e-02 0.0000000e+00 
-7.2791492e-04 -1.3335563e-02 0.0000000e+00 
2.6527325e-04 -1.3360237e-02 0.0000000e+00 
1.2584748e-03 -1.3396290e-02 0.0000000e+00 
-1.8210747e-03 -1.4673575e-02 0.0000000e+00 
-7.8389779e-04 -1.4689308e-02 0.0000000e+00 
2.5212622e-04 -1.4716157e-02 0.0000000e+00 
1.2881428e-03 -1.4754155e-02 0.0000000e+00 
-1.9215220e-03 -1.6081354e-02 0.0000000e+00 
-8.4237679e-04 -1.6099535e-02 0.0000000e+00 
2.3561264e-04 -1.6128604e-02 0.0000000e+00 
1.3135753e-03 -1.6168597e-02 0.0000000e+00 
-2.0236697e-03 -1.7544429e-02 0.0000000e+00 
-9.0341511e-04 -1.7565095e-02 0.0000000e+00 
2.1568187e-04 -1.7596425e-02 0.0000000e+00 
1.3347341e-03 -1.7638456e-02 0.0000000e+00 
-2.1275868e-03 -1.9061671e-02 0.0000000e+00 
-9.6706959e-04 -1.9084855e-02 0.0000000e+00 
1.9228944e-04 -1.9118481e-02 0.0000000e+00 
1.3515869e-03 -1.9162589e-02 0.0000000e+00 
-2.2333368e-03 -2.0631968e-02 0.0000000e+00 
-1.0333908e-03 -2.0657698e-02 0.0000000e+00 
1.6539669e-04 -2.0693651e-02 0.0000000e+00 
1.3641073e-03 -2.0739871e-02 0.0000000e+00 
-2.3409754e-03 -2.2254222e-02 0.0000000e+00 
-1.1024239e-03 -2.2282523e-02 0.0000000e+00 
1.3497075e-04 -2.2320831e-02 0.0000000e+00 
1.3722739e-03 -2.2369192e-02 0.0000000e+00 
-2.4505549e-03 -2.3927354e-02 0.0000000e+00 
-1.1742082e-03 -2.3958244e-02 0.0000000e+00 
1.0098406e-04 -2.3998931e-02 0.0000000e+00 
1.3760713e-03 -2.4049460e-02 0.0000000e+00 
-2.5621216e-03 -2.5650296e-02 0.0000000e+00 
-1.2487781e-03 -2.5683792e-02 0.0000000e+00 
6.3414382e-05 -2.5726877e-02 0.0000000e+00 
1.3754894e-03 -2.5779597e-02 0.0000000e+00 
-2.6757171e-03 -2.7422000e-02 0.0000000e+00 
-1.3261630e-03 -2.7458115e-02 0.0000000e+00 
2.2244308e-05 -2.7503613e-02 0.0000000e+00 
1.3705227e-03 -2.7558543e-02 0.0000000e+00 
-2.7913780e-03 -2.9241431e-02 0.0000000e+00 
-1.4063876e-03 -2.9280175e-02 0.0000000e+00 
-2.2538849e-05 -2.9328099e-02 0.0000000e+00 
1.3611703e-03 -2.9385254e-02 0.0000000e+00 
-2.9091366e-03 -3.1107572e-02 0.0000000e+00 
-1.4894720e-03 -3.1148950e-02 0.0000000e+00 
-7.0943369e-05 -3.1199309e-02 0.0000000e+00 
1.3474360e-03 -3.1258701e-02 0.0000000e+00 
-3.0290205e-03 -3.3019420e-02 0.0000000e+00 
-1.5754322e-03 -3.3063435e-02 0.0000000e+00 
-1.2297337e-04 -3.3116234e-02 0.0000000e+00 
1.3293275e-03 -3.3177873e-02 0.0000000e+00 
-3.1510530e-03 -3.4975988e-02 0.0000000e+00 
-1.6642799e-03 -3.5022639e-02 0.0000000e+00 
-1.7862890e-04 -3.5077883e-02 0.0000000e+00 
1.3068561e-03 -3.5141774e-02 0.0000000e+00 
-3.2752539e-03 -3.6976303e-02 0.0000000e+00 
-1.7560230e-03 -3.7025589e-02 0.0000000e+00 
-2.3790627e-04 -3.7083277e-02 0.0000000e+00 
1.2800372e-03 -3.7149423e-02 0.0000000e+00 
-3.4016389e-03 -3.9019410e-02 0.0000000e+00 
-1.8506658e-03 -3.9071324e-02 0.0000000e+00 
-3.0079818e-04 -3.9131453e-02 0.0000000e+00 
1.2488896e-03 -3.9199856e-02 0.0000000e+00 
-3.5302201e-03 -4.1104366e-02 0.0000000e+00 
-1.9482092e-03 -4.1158900e-02 0.0000000e+00 
-3.6729382e-04 -4.1221467e-02 0.0000000e+00 
1.2134356e-03 -4.1292124e-02 0.0000000e+00 
-3.6610084e-03 -4.3230245e-02 0.0000000e+00 
-2.0486509e-03 -4.3287389e-02 0.0000000e+00 
-4.3737925e-04 -4.3352386e-02 0.0000000e+00 
1.1737012e-03 -4.3425294e-02 0.0000000e+00 
-3.7940094e-03 -4.5396137e-02 0.0000000e+00 
-2.1519856e-03 -4.5455879e-02 0.0000000e+00 
-5.1103756e-04 -4.5523296e-02 0.0000000e+00 
1.1297149e-03 -4.5598447e-02 0.0000000e+00 
-3.9292259e-03 -4.7601146e-02 0.0000000e+00 
-2.2582049e-03 -4.7663472e-02 0.0000000e+00 
-5.8824907e-04 -4.7733298e-02 0.0000000e+00 
1.0815072e-03 -4.7810684e-02 0.0000000e+00 
-4.0666580e-03 -4.9844392e-02 0.0000000e+00 
-2.3672973e-03 -4.9909284e-02 0.0000000e+00 
-6.6899161e-04 -4.9981505e-02 0.0000000e+00 
1.0291116e-03 -5.0061116e-02 0.0000000e+00 
-4.2063006e-03 -5.2125007e-02 0.0000000e+00 
-2.4792488e-03 -5.2192448e-02 0.0000000e+00 
-7.5324035e-04 -5.2267049e-02 0.0000000e+00 
9.7256270e-04 -5.2348871e-02 0.0000000e+00 
-4.3481487e-03 -5.4442138e-02 0.0000000e+00 
-2.5940426e-03 -5.4512108e-02 0.0000000e+00 
-8.4096816e-04 -5.4589072e-02 0.0000000e+00 
9.1189871e-04 -5.4673091e-02 0.0000000e+00 
-4.4921941e-03 -5.6794947e-02 0.0000000e+00 
-2.7116601e-03 -5.6867423e-02 0.0000000e+00 
-9.3214550e-04 -5.6946731e-02 0.0000000e+00 
8.4715969e-04 -5.7032931e-02 0.0000000e+00 
-4.6384267e-03 -5.9182608e-02 0.0000000e+00 
-2.8320803e-03 -5.9257568e-02 0.0000000e+00 
-1.0267408e-03 -5.9339198e-02 0.0000000e+00 
7.7838789e-04 -5.9427562e-02 0.0000000e+00 
-4.7868339e-03 -6.1604309e-02 0.0000000e+00 
-2.9552802e-03 -6.1681729e-02 0.0000000e+00 
-1.1247207e-03 -6.1765661e-02 0.0000000e+00 
7.0562717e-04 -6.1856169e-02 0.0000000e+00 
-4.9374015e-03 -6.4059255e-02 0.0000000e+00 
-3.0812351e-03 -6.4139108e-02 0.0000000e+00 
-1.2260499e-03 -6.4225319e-02 0.0000000e+00 
6.2892325e-04 -6.4317951e-02 0.0000000e+00 
-5.0901130e-03 -6.6546662e-02 0.0000000e+00 
-3.2099183e-03 -6.6628921e-02 0.0000000e+00 
-1.3306915e-03 -6.6717385e-02 0.0000000e+00 
5.4832321e-04 -6.6812119e-02 0.0000000e+00 
-5.2449501e-03 -6.9065759e-02 0.0000000e+00 
-3.3413014e-03 -6.9150396e-02 0.0000000e+00 
-1.4386072e-03 -6.9241089e-02 0.0000000e+00 
4.6387538e-04 -6.9337902e-02 0.0000000e+00 
-5.4018930e-03 -7.1615790e-02 0.0000000e+00 
-3.4753545e-03 -7.1702775e-02 0.0000000e+00 
-1.5497570e-03 -7.1795670e-02 0.0000000e+00 
3.7562959e-04 -7.1894538e-02 0.0000000e+00 
-5.5609199e-03 -7.4196010e-02 0.0000000e+00 
-3.6120462e-03 -7.4285314e-02 0.0000000e+00 
-1.6640999e-03 -7.4380383e-02 0.0000000e+00 
2.8363669e-04 -7.4481281e-02 0.0000000e+00 
-5.7220080e-03 -7.6805689e-02 0.0000000e+00 
-3.7513440e-03 -7.6897280e-02 0.0000000e+00 
-1.7815934e-03 -7.6994495e-02 0.0000000e+00 
1.8794875e-04 -7.7097397e-02 0.0000000e+00 
-5.8851328e-03 -7.9444109e-02 0.0000000e+00 
-3.8932139e-03 -7.9537955e-02 0.0000000e+00 
-1.9021942e-03 -7.9637286e-02 0.0000000e+00 
8.8618691e-05 -7.9742165e-02 0.0000000e+00 
-6.0502685e-03 -8.2110563e-02 0.0000000e+00 
-4.0376210e-03 -8.2206632e-02 0.0000000e+00 
-2.0258576e-03 -8.2308049e-02 0.0000000e+00 
-1.4299567e-05 -8.2414877e-02 0.0000000e+00 
-6.2173907e-03 -8.4804358e-02 0.0000000e+00 
-4.1845295e-03 -8.4902616e-02 0.0000000e+00 
-2.1525382e-03 -8.5006089e-02 0.0000000e+00 
-1.2074997e-04 -8.5114837e-02 0.0000000e+00 
-6.3864715e-03 -8.7524815e-02 0.0000000e+00 
-4.3339028e-03 -8.7625229e-02 0.0000000e+00 
-2.2821897e-03 -8.7730725e-02 0.0000000e+00 
-2.3067729e-04 -8.7841366e-02 0.0000000e+00 
-6.5574820e-03 -9.0271266e-02 0.0000000e+00 
-4.4857030e-03 -9.0373801e-02 0.0000000e+00 
-2.4147654e-03 -9.0481289e-02 0.0000000e+00 
-3.4402576e-04 -9.0593792e-02 0.0000000e+00 
-6.7303929e-03 -9.3043055e-02 0.0000000e+00 
-4.6398913e-03 -9.3147676e-02 0.0000000e+00 
-2.5502180e-03 -9.3257123e-02 0.0000000e+00 
-4.6073901e-04 -9.3371458e-02 0.0000000e+00 
-6.9051707e-03 -9.5839538e-02 0.0000000e+00 
-4.7964282e-03 -9.5946210e-02 0.0000000e+00 
-2.6884994e-03 -9.6057583e-02 0.0000000e+00 
-5.8076192e-04 -9.6173719e-02 0.0000000e+00 
-7.0817843e-03 -9.8660078e-02 0.0000000e+00 
-4.9552730e-03 -9.8768766e-02 0.0000000e+00 
-2.8295611e-03 -9.8882032e-02 0.0000000e+00 
-7.0403711e-04 -9.8999937e-02 0.0000000e+00 
-7.2602011e-03 -1.0150405e-01 0.0000000e+00 
-5.1163850e-03 -1.0161472e-01 0.0000000e+00 
-2.9733539e-03 -1.0172985e-01 0.0000000e+00 
-8.3050711e-04 -1.0184949e-01 0.0000000e+00 
-7.4403884e-03 -1.0437085e-01 0.0000000e+00 
-5.2797230e-03 -1.0448346e-01 0.0000000e+00 
-3.1198281e-03 -1.0460041e-01 0.0000000e+00 
-9.6011398e-04 -1.0472176e-01 0.0000000e+00 
-7.6223124e-03 -1.0725987e-01 0.0000000e+00 
-5.4452451e-03 -1.0737439e-01 0.0000000e+00 
-3.2689340e-03 -1.0749313e-01 0.0000000e+00 
-1.0927998e-03 -1.0761615e-01 0.0000000e+00 
-7.8059388e-03 -1.1017053e-01 0.0000000e+00 
-5.6129091e-03 -1.1028691e-01 0.0000000e+00 
-3.4206214e-03 -1.1040741e-01 0.0000000e+00 
-1.2285065e-03 -1.1053207e-01 0.0000000e+00 
-7.9912327e-03 -1.1310223e-01 0.0000000e+00 
-5.7826724e-03 -1.1322045e-01 0.0000000e+00 
-3.5748400e-03 -1.1334266e-01 0.0000000e+00 
-1.3671760e-03 -1.1346893e-01 0.0000000e+00 
-8.1781589e-03 -1.1605442e-01 0.0000000e+00 
-5.9544922e-03 -1.1617443e-01 0.0000000e+00 
-3.7315391e-03 -1.1629833e-01 0.0000000e+00 
-1.5087501e-03 -1.1642617e-01 0.0000000e+00 
-8.3666813e-03 -1.1902652e-01 0.0000000e+00 
-6.1283255e-03 -1.1914829e-01 0.0000000e+00 
-3.8906679e-03 -1.1927384e-01 0.0000000e+00 
-1.6531706e-03 -1.1940323e-01 0.0000000e+00 
-8.5567669e-03 -1.2201800e-01 0.0000000e+00 
-6.3041291e-03 -1.2214149e-01 0.0000000e+00 
-4.0521756e-03 -1.2226865e-01 0.0000000e+00 
-1.8003779e-03 -1.2239955e-01 0.0000000e+00 
-8.7483791e-03 -1.2502831e-01 0.0000000e+00 
-6.4818601e-03 -1.2515348e-01 0.0000000e+00 
-4.2160115e-03 -1.2528223e-01 0.0000000e+00 
-1.9503140e-03 -1.2541460e-01 0.0000000e+00 
-8.9414816e-03 -1.2805692e-01 0.0000000e+00 
-6.6614750e-03 -1.2818374e-01 0.0000000e+00 
-4.3821248e-03 -1.2831403e-01 0.0000000e+00 
-2.1029212e-03 -1.2844784e-01 0.0000000e+00 
-9.1360381e-03 -1.3110331e-01 0.0000000e+00 
-6.8429298e-03 -1.3123174e-01 0.0000000e+00 
-4.5504653e-03 -1.3136354e-01 0.0000000e+00 
-2.2581419e-03 -1.3149876e-01 0.0000000e+00 
-9.3320088e-03 -1.3416698e-01 0.0000000e+00 
-7.0261806e-03 -1.3429698e-01 0.0000000e+00 
-4.7209825e-03 -1.3443025e-01 0.0000000e+00 
-2.4159205e-03 -1.3456685e-01 0.0000000e+00 
-9.5293570e-03 -1.3724741e-01 0.0000000e+00 
-7.2111832e-03 -1.3737895e-01 0.0000000e+00 
-4.8936258e-03 -1.3751366e-01 0.0000000e+00 
-2.5761997e-03 -1.3765159e-01 0.0000000e+00 
-9.7280453e-03 -1.4034412e-01 0.0000000e+00 
-7.3978937e-03 -1.4047716e-01 0.0000000e+00 
-5.0683450e-03 -1.4061327e-01 0.0000000e+00 
-2.7389224e-03 -1.4075251e-01 0.0000000e+00 
-9.9280365e-03 -1.4345662e-01 0.0000000e+00 
-7.5862683e-03 -1.4359111e-01 0.0000000e+00 
-5.2450895e-03 -1.4372859e-01 0.0000000e+00 
-2.9040318e-03 -1.4386911e-01 0.0000000e+00 
-1.0129293e-02 -1.4658442e-01 0.0000000e+00 
-7.7762633e-03 -1.4672034e-01 0.0000000e+00 
-5.4238093e-03 -1.4685915e-01 0.0000000e+00 
-3.0714714e-03 -1.4700091e-01 0.0000000e+00 
-1.0331778e-02 -1.4972707e-01 0.0000000e+00 
-7.9678351e-03 -1.4986438e-01 0.0000000e+00 
-5.6044546e-03 -1.5000449e-01 0.0000000e+00 
-3.2411850e-03 -1.5014744e-01 0.0000000e+00 
-1.0535454e-02 -1.5288409e-01 0.0000000e+00 
-8.1609402e-03 -1.5302275e-01 0.0000000e+00 
-5.7869756e-03 -1.5316412e-01 0.0000000e+00 
-3.4131169e-03 -1.5330826e-01 0.0000000e+00 
-1.0740284e-02 -1.5605505e-01 0.0000000e+00 
-8.3555352e-03 -1.5619502e-01 0.0000000e+00 
-5.9713231e-03 -1.5633762e-01 0.0000000e+00 
-3.5872115e-03 -1.5648289e-01 0.0000000e+00 
-1.0946230e-02 -1.5923948e-01 0.0000000e+00 
-8.5515772e-03 -1.5938074e-01 0.0000000e+00 
-6.1574479e-03 -1.5952453e-01 0.0000000e+00 
-3.7634140e-03 -1.5967091e-01 0.0000000e+00 
-1.1153256e-02 -1.6243697e-01 0.0000000e+00 
-8.7490232e-03 -1.6257946e-01 0.0000000e+00 
-6.3453013e-03 -1.6272441e-01 0.0000000e+00 
-3.9416696e-03 -1.6287187e-01 0.0000000e+00 
-1.1361325e-02 -1.6564707e-01 0.0000000e+00 
-8.9478305e-03 -1.6579077e-01 0.0000000e+00 
-6.5348348e-03 -1.6593685e-01 0.0000000e+00 
-4.1219242e-03 -1.6608534e-01 0.0000000e+00 
-1.1570399e-02 -1.6886936e-01 0.0000000e+00 
-9.1479568e-03 -1.6901424e-01 0.0000000e+00 
-6.7260003e-03 -1.6916140e-01 0.0000000e+00 
-4.3041238e-03 -1.6931091e-01 0.0000000e+00 
-1.1780443e-02 -1.7210344e-01 0.0000000e+00 
-9.3493604e-03 -1.7224945e-01 0.0000000e+00 
-6.9187500e-03 -1.7239768e-01 0.0000000e+00 
-4.4882152e-03 -1.7254816e-01 0.0000000e+00 
-1.1991423e-02 -1.7534889e-01 0.0000000e+00 
-9.5519998e-03 -1.7549601e-01 0.0000000e+00 
-7.1130364e-03 -1.7564525e-01 0.0000000e+00 
-4.6741436e-03 -1.7579668e-01 0.0000000e+00 
-1.2203304e-02 -1.7860532e-01 0.0000000e+00 
-9.7558343e-03 -1.7875351e-01 0.0000000e+00 
-7.3088127e-03 -1.7890375e-01 0.0000000e+00 
-4.8618568e-03 -1.7905609e-01 0.0000000e+00 
-1.2416049e-02 -1.8187234e-01 0.0000000e+00 
-9.9608232e-03 -1.8202156e-01 0.0000000e+00 
-7.5060326e-03 -1.8217276e-01 0.0000000e+00 
-5.0513030e-03 -1.8232598e-01 0.0000000e+00 
-1.2629626e-02 -1.8514957e-01 0.0000000e+00 
-1.0166926e-02 -1.8529979e-01 0.0000000e+00 
-7.7046506e-03 -1.8545191e-01 0.0000000e+00 
-5.2424308e-03 -1.8560599e-01 0.0000000e+00 
-1.2843995e-02 -1.8843662e-01 0.0000000e+00 
-1.0374102e-02 -1.8858781e-01 0.0000000e+00 
-7.9046214e-03 -1.8874083e-01 0.0000000e+00 
-5.4351915e-03 -1.8889573e-01 0.0000000e+00 
-1.3059124e-02 -1.9173314e-01 0.0000000e+00 
-1.0582311e-02 -1.9188526e-01 0.0000000e+00 
-8.1059001e-03 -1.9203915e-01 0.0000000e+00 
-5.6295346e-03 -1.9219484e-01 0.0000000e+00 
-1.3274978e-02 -1.9503876e-01 0.0000000e+00 
-1.0791515e-02 -1.9519178e-01 0.0000000e+00 
-8.3084420e-03 -1.9534650e-01 0.0000000e+00 
-5.8254101e-03 -1.9550295e-01 0.0000000e+00 
-1.3491524e-02 -1.9835311e-01 0.0000000e+00 
-1.1001675e-02 -1.9850701e-01 0.0000000e+00 
-8.5122032e-03 -1.9866252e-01 0.0000000e+00 
-6.0227686e-03 -1.9881971e-01 0.0000000e+00 
-1.3708729e-02 -2.0167586e-01 0.0000000e+00 
-1.1212751e-02 -2.0183059e-01 0.0000000e+00 
-8.7171402e-03 -2.0198688e-01 0.0000000e+00 
-6.2215613e-03 -2.0214478e-01 0.0000000e+00 
-1.3926562e-02 -2.0500666e-01 0.0000000e+00 
-1.1424708e-02 -2.0516220e-01 0.0000000e+00 
-8.9232100e-03 -2.0531923e-01 0.0000000e+00 
-6.4217398e-03 -2.0547780e-01 0.0000000e+00 
-1.4144989e-02 -2.0834518e-01 0.0000000e+00 
-1.1637508e-02 -2.0850150e-01 0.0000000e+00 
-9.1303702e-03 -2.0865924e-01 0.0000000e+00 
-6.6232565e-03 -2.0881845e-01 0.0000000e+00 
-1.4363982e-02 -2.1169109e-01 0.0000000e+00 
-1.1851114e-02 -2.1184815e-01 0.0000000e+00 
-9.3385791e-03 -2.1200658e-01 0.0000000e+00 
-6.8260641e-03 -2.1216641e-01 0.0000000e+00 
-1.4583508e-02 -2.1504407e-01 0.0000000e+00 
-1.2065491e-02 -2.1520185e-01 0.0000000e+00 
-9.5477954e-03 -2.1536093e-01 0.0000000e+00 
-7.0301163e-03 -2.1552135e-01 0.0000000e+00 
-1.4803542e-02 -2.1840381e-01 0.0000000e+00 
-1.2280605e-02 -2.1856227e-01 0.0000000e+00 
-9.7579786e-03 -2.1872198e-01 0.0000000e+00 
-7.2353652e-03 -2.1888297e-01 0.0000000e+00 
-1.5024054e-02 -2.2177000e-01 0.0000000e+00 
-1.2496422e-02 -2.2192912e-01 0.0000000e+00 
-9.9690890e-03 -2.2208943e-01 0.0000000e+00 
-7.4417659e-03 -2.2225096e-01 0.0000000e+00 
-1.5245016e-02 -2.2514235e-01 0.0000000e+00 
-1.2712908e-02 -2.2530210e-01 0.0000000e+00 
-1.0181088e-02 -2.2546298e-01 0.0000000e+00 
-7.6492740e-03 -2.2562502e-01 0.0000000e+00 
-1.5466402e-02 -2.2852057e-01 0.0000000e+00 
-1.2930030e-02 -2.2868092e-01 0.0000000e+00 
-1.0393937e-02 -2.2884234e-01 0.0000000e+00 
-7.8578459e-03 -2.2900488e-01 0.0000000e+00 
-1.5688182e-02 -2.3190438e-01 0.0000000e+00 
-1.3147756e-02 -2.3206530e-01 0.0000000e+00 
-1.0607599e-02 -2.3222724e-01 0.0000000e+00 
-8.0674407e-03 -2.3239025e-01 0.0000000e+00 
-1.5910330e-02 -2.3529349e-01 0.0000000e+00 
-1.3366054e-02 -2.3545496e-01 0.0000000e+00 
-1.0822037e-02 -2.3561740e-01 0.0000000e+00 
-8.2780158e-03 -2.3578084e-01 0.0000000e+00 
-1.6132822e-02 -2.3868765e-01 0.0000000e+00 
-1.3584894e-02 -2.3884963e-01 0.0000000e+00 
-1.1037215e-02 -2.3901254e-01 0.0000000e+00 
-8.4895296e-03 -2.3917641e-01 0.0000000e+00 
-1.6355633e-02 -2.4208658e-01 0.0000000e+00 
-1.3804246e-02 -2.4224906e-01 0.0000000e+00 
-1.1253098e-02 -2.4241242e-01 0.0000000e+00 
-8.7019411e-03 -2.4257668e-01 0.0000000e+00 
-1.6578739e-02 -2.4549004e-01 0.0000000e+00 
-1.4024081e-02 -2.4565299e-01 0.0000000e+00 
-1.1469651e-02 -2.4581677e-01 0.0000000e+00 
-8.9152101e-03 -2.4598140e-01 0.0000000e+00 
-1.6802119e-02 -2.4889777e-01 0.0000000e+00 
-1.4244370e-02 -2.4906117e-01 0.0000000e+00 
-1.1686840e-02 -2.4922535e-01 0.0000000e+00 
-9.1292971e-03 -2.4939033e-01 0.0000000e+00 
-1.7025751e-02 -2.5230954e-01 0.0000000e+00 
-1.4465087e-02 -2.5247337e-01 0.0000000e+00 
-1.1904633e-02 -2.5263792e-01 0.0000000e+00 
-9.3441636e-03 -2.5280324e-01 0.0000000e+00 
-1.7249614e-02 -2.5572512e-01 0.0000000e+00 
-1.4686205e-02 -2.5588934e-01 0.0000000e+00 
-1.2122997e-02 -2.5605426e-01 0.0000000e+00 
-9.5597716e-03 -2.5621988e-01 0.0000000e+00 
-1.7473689e-02 -2.5914428e-01 0.0000000e+00 
-1.4907699e-02 -2.5930888e-01 0.0000000e+00 
-1.2341901e-02 -2.5947413e-01 0.0000000e+00 
-9.7760844e-03 -2.5964005e-01 0.0000000e+00 
-1.7697956e-02 -2.6256681e-01 0.0000000e+00 
-1.5129544e-02 -2.6273176e-01 0.0000000e+00 
-1.2561315e-02 -2.6289732e-01 0.0000000e+00 
-9.9930656e-03 -2.6306352e-01 0.0000000e+00 
-1.7922398e-02 -2.6599249e-01 0.0000000e+00 
-1.5351718e-02 -2.6615778e-01 0.0000000e+00 
-1.2781209e-02 -2.6632364e-01 0.0000000e+00 
-1.0210680e-02 -2.6649009e-01 0.0000000e+00 
-1.8147002e-02 -2.6942113e-01 0.0000000e+00 