# vtk DataFile Version 4.0
vtk output
ASCII
DATASET UNSTRUCTURED_GRID
POINTS 604 float
5.5000000e+00 5.9700000e+00 0.0000000e+00 
5.5000000e+00 5.9900000e+00 0.0000000e+00 
5.5266667e+00 5.9700000e+00 0.0000000e+00 
5.5266667e+00 5.9900000e+00 0.0000000e+00 
5.5000000e+00 6.0100000e+00 0.0000000e+00 
5.5266667e+00 6.0100000e+00 0.0000000e+00 
5.5533333e+00 5.9700000e+00 0.0000000e+00 
5.5533333e+00 5.9900000e+00 0.0000000e+00 
5.5000000e+00 6.0300000e+00 0.0000000e+00 
5.5266667e+00 6.0300000e+00 0.0000000e+00 
5.5533333e+00 6.0100000e+00 0.0000000e+00 
5.5800000e+00 5.9700000e+00 0.0000000e+00 
5.5533333e+00 6.0300000e+00 0.0000000e+00 
5.5800000e+00 5.9900000e+00 0.0000000e+00 
5.5800000e+00 6.0100000e+00 0.0000000e+00 
5.5800000e+00 6.0300000e+00 0.0000000e+00 
5.6066667e+00 5.9700000e+00 0.0000000e+00 
5.6066667e+00 5.9900000e+00 0.0000000e+00 
5.6066667e+00 6.0100000e+00 0.0000000e+00 
5.6066667e+00 6.0300000e+00 0.0000000e+00 
5.6333333e+00 5.9700000e+00 0.0000000e+00 
5.6333333e+00 5.9900000e+00 0.0000000e+00 
5.6333333e+00 6.0100000e+00 0.0000000e+00 
5.6333333e+00 6.0300000e+00 0.0000000e+00 
5.6600000e+00 5.9700000e+00 0.0000000e+00 
5.6600000e+00 5.9900000e+00 0.0000000e+00 
5.6600000e+00 6.0100000e+00 0.0000000e+00 
5.6600000e+00 6.0300000e+00 0.0000000e+00 
5.6866667e+00 5.9700000e+00 0.0000000e+00 
5.6866667e+00 5.9900000e+00 0.0000000e+00 
5.6866667e+00 6.0100000e+00 0.0000000e+00 
5.6866667e+00 6.0300000e+00 0.0000000e+00 
5.7133333e+00 5.9700000e+00 0.0000000e+00 
5.7133333e+00 5.9900000e+00 0.0000000e+00 
5.7133333e+00 6.0100000e+00 0.0000000e+00 
5.7133333e+00 6.0300000e+00 0.0000000e+00 
5.7400000e+00 5.9700000e+00 0.0000000e+00 
5.7400000e+00 5.9900000e+00 0.0000000e+00 
5.7400000e+00 6.0100000e+00 0.0000000e+00 
5.7400000e+00 6.0300000e+00 0.0000000e+00 
5.7666667e+00 5.9700000e+00 0.0000000e+00 
5.7666667e+00 5.9900000e+00 0.0000000e+00 
5.7666667e+00 6.0100000e+00 0.0000000e+00 
5.7666667e+00 6.0300000e+00 0.0000000e+00 
5.7933333e+00 5.9700000e+00 0.0000000e+00 
5.7933333e+00 5.9900000e+00 0.0000000e+00 
5.7933333e+00 6.0100000e+00 0.0000000e+00 
5.7933333e+00 6.0300000e+00 0.0000000e+00 
5.8200000e+00 5.9700000e+00 0.0000000e+00 
5.8200000e+00 5.9900000e+00 0.0000000e+00 
5.8200000e+00 6.0100000e+00 0.0000000e+00 
5.8200000e+00 6.0300000e+00 0.0000000e+00 
5.8466667e+00 5.9700000e+00 0.0000000e+00 
5.8466667e+00 5.9900000e+00 0.0000000e+00 
5.8466667e+00 6.0100000e+00 0.0000000e+00 
5.8466667e+00 6.0300000e+00 0.0000000e+00 
5.8733333e+00 5.9700000e+00 0.0000000e+00 
5.8733333e+00 5.9900000e+00 0.0000000e+00 
5.8733333e+00 6.0100000e+00 0.0000000e+00 
5.8733333e+00 6.0300000e+00 0.0000000e+00 
5.9000000e+00 5.9700000e+00 0.0000000e+00 
5.9000000e+00 5.9900000e+00 0.0000000e+00 
5.9000000e+00 6.0100000e+00 0.0000000e+00 
5.9000000e+00 6.0300000e+00 0.0000000e+00 
5.9266667e+00 5.9700000e+00 0.0000000e+00 
5.9266667e+00 5.9900000e+00 0.0000000e+00 
5.9266667e+00 6.0100000e+00 0.0000000e+00 
5.9266667e+00 6.0300000e+00 0.0000000e+00 
5.9533333e+00 5.9700000e+00 0.0000000e+00 
5.9533333e+00 5.9900000e+00 0.0000000e+00 
5.9533333e+00 6.0100000e+00 0.0000000e+00 
5.9533333e+00 6.0300000e+00 0.0000000e+00 
5.9800000e+00 5.9700000e+00 0.0000000e+00 
5.9800000e+00 5.9900000e+00 0.0000000e+00 
5.9800000e+00 6.0100000e+00 0.0000000e+00 
5.9800000e+00 6.0300000e+00 0.0000000e+00 
6.0066667e+00 5.9700000e+00 0.0000000e+00 
6.0066667e+00 5.9900000e+00 0.0000000e+00 
6.0066667e+00 6.0100000e+00 0.0000000e+00 
6.0066667e+00 6.0300000e+00 0.0000000e+00 
6.0333333e+00 5.9700000e+00 0.0000000e+00 
6.0333333e+00 5.9900000e+00 0.0000000e+00 
6.0333333e+00 6.0100000e+00 0.0000000e+00 
6.0333333e+00 6.0300000e+00 0.0000000e+00 
6.0600000e+00 5.9700000e+00 0.0000000e+00 
6.0600000e+00 5.9900000e+00 0.0000000e+00 
6.0600000e+00 6.0100000e+00 0.0000000e+00 
6.0600000e+00 6.0300000e+00 0.0000000e+00 
6.0866667e+00 5.9700000e+00 0.0000000e+00 
6.0866667e+00 5.9900000e+00 0.0000000e+00 
6.0866667e+00 6.0100000e+00 0.0000000e+00 
6.0866667e+00 6.0300000e+00 0.0000000e+00 
6.1133333e+00 5.9700000e+00 0.0000000e+00 
6.1133333e+00 5.9900000e+00 0.0000000e+00 
6.1133333e+00 6.0100000e+00 0.0000000e+00 
6.1133333e+00 6.0300000e+00 0.0000000e+00 
6.1400000e+00 5.9700000e+00 0.0000000e+00 
6.1400000e+00 5.9900000e+00 0.0000000e+00 
6.1400000e+00 6.0100000e+00 0.0000000e+00 
6.1400000e+00 6.0300000e+00 0.0000000e+00 
6.1666667e+00 5.9700000e+00 0.0000000e+00 
6.1666667e+00 5.9900000e+00 0.0000000e+00 
6.1666667e+00 6.0100000e+00 0.0000000e+00 
6.1666667e+00 6.0300000e+00 0.0000000e+00 
6.1933333e+00 5.9700000e+00 0.0000000e+00 
6.1933333e+00 5.9900000e+00 0.0000000e+00 
6.1933333e+00 6.0100000e+00 0.0000000e+00 
6.1933333e+00 6.0300000e+00 0.0000000e+00 
6.2200000e+00 5.9700000e+00 0.0000000e+00 
6.2200000e+00 5.9900000e+00 0.0000000e+00 
6.2200000e+00 6.0100000e+00 0.0000000e+00 
6.2200000e+00 6.0300000e+00 0.0000000e+00 
6.2466667e+00 5.9700000e+00 0.0000000e+00 
6.2466667e+00 5.9900000e+00 0.0000000e+00 
6.2466667e+00 6.0100000e+00 0.0000000e+00 
6.2466667e+00 6.0300000e+00 0.0000000e+00 
6.2733333e+00 5.9700000e+00 0.0000000e+00 
6.2733333e+00 5.9900000e+00 0.0000000e+00 
6.2733333e+00 6.0100000e+00 0.0000000e+00 
6.2733333e+00 6.0300000e+00 0.0000000e+00 
6.3000000e+00 5.9700000e+00 0.0000000e+00 
6.3000000e+00 5.9900000e+00 0.0000000e+00 
6.3000000e+00 6.0100000e+00 0.0000000e+00 
6.3000000e+00 6.0300000e+00 0.0000000e+00 
6.3266667e+00 5.9700000e+00 0.0000000e+00 
6.3266667e+00 5.9900000e+00 0.0000000e+00 
6.3266667e+00 6.0100000e+00 0.0000000e+00 
6.3266667e+00 6.0300000e+00 0.0000000e+00 
6.3533333e+00 5.9700000e+00 0.0000000e+00 
6.3533333e+00 5.9900000e+00 0.0000000e+00 
6.3533333e+00 6.0100000e+00 0.0000000e+00 
6.3533333e+00 6.0300000e+00 0.0000000e+00 
6.3800000e+00 5.9700000e+00 0.0000000e+00 
6.3800000e+00 5.9900000e+00 0.0000000e+00 
6.3800000e+00 6.0100000e+00 0.0000000e+00 
6.3800000e+00 6.0300000e+00 0.0000000e+00 
6.4066667e+00 5.9700000e+00 0.0000000e+00 
6.4066667e+00 5.9900000e+00 0.0000000e+00 
6.4066667e+00 6.0100000e+00 0.0000000e+00 
6.4066667e+00 6.0300000e+00 0.0000000e+00 
6.4333333e+00 5.9700000e+00 0.0000000e+00 
6.4333333e+00 5.9900000e+00 0.0000000e+00 
6.4333333e+00 6.0100000e+00 0.0000000e+00 
6.4333333e+00 6.0300000e+00 0.0000000e+00 
6.4600000e+00 5.9700000e+00 0.0000000e+00 
6.4600000e+00 5.9900000e+00 0.0000000e+00 
6.4600000e+00 6.0100000e+00 0.0000000e+00 
6.4600000e+00 6.0300000e+00 0.0000000e+00 
6.4866667e+00 5.9700000e+00 0.0000000e+00 
6.4866667e+00 5.9900000e+00 0.0000000e+00 
6.4866667e+00 6.0100000e+00 0.0000000e+00 
6.4866667e+00 6.0300000e+00 0.0000000e+00 
6.5133333e+00 5.9700000e+00 0.0000000e+00 
6.5133333e+00 5.9900000e+00 0.0000000e+00 
6.5133333e+00 6.0100000e+00 0.0000000e+00 
6.5133333e+00 6.0300000e+00 0.0000000e+00 
6.5400000e+00 5.9700000e+00 0.0000000e+00 
6.5400000e+00 5.9900000e+00 0.0000000e+00 
6.5400000e+00 6.0100000e+00 0.0000000e+00 
6.5400000e+00 6.0300000e+00 0.0000000e+00 
6.5666667e+00 5.9700000e+00 0.0000000e+00 
6.5666667e+00 5.9900000e+00 0.0000000e+00 
6.5666667e+00 6.0100000e+00 0.0000000e+00 
6.5666667e+00 6.0300000e+00 0.0000000e+00 
6.5933333e+00 5.9700000e+00 0.0000000e+00 
6.5933333e+00 5.9900000e+00 0.0000000e+00 
6.5933333e+00 6.0100000e+00 0.0000000e+00 
6.5933333e+00 6.0300000e+00 0.0000000e+00 
6.6200000e+00 5.9700000e+00 0.0000000e+00 
6.6200000e+00 5.9900000e+00 0.0000000e+00 
6.6200000e+00 6.0100000e+00 0.0000000e+00 
6.6200000e+00 6.0300000e+00 0.0000000e+00 
6.6466667e+00 5.9700000e+00 0.0000000e+00 
6.6466667e+00 5.9900000e+00 0.0000000e+00 
6.6466667e+00 6.0100000e+00 0.0000000e+00 
6.6466667e+00 6.0300000e+00 0.0000000e+00 
6.6733333e+00 5.9700000e+00 0.0000000e+00 
6.6733333e+00 5.9900000e+00 0.0000000e+00 
6.6733333e+00 6.0100000e+00 0.0000000e+00 
6.6733333e+00 6.0300000e+00 0.0000000e+00 
6.7000000e+00 5.9700000e+00 0.0000000e+00 
6.7000000e+00 5.9900000e+00 0.0000000e+00 
6.7000000e+00 6.0100000e+00 0.0000000e+00 
6.7000000e+00 6.0300000e+00 0.0000000e+00 
6.7266667e+00 5.9700000e+00 0.0000000e+00 
6.7266667e+00 5.9900000e+00 0.0000000e+00 
6.7266667e+00 6.0100000e+00 0.0000000e+00 
6.7266667e+00 6.0300000e+00 0.0000000e+00 
6.7533333e+00 5.9700000e+00 0.0000000e+00 
6.7533333e+00 5.9900000e+00 0.0000000e+00 
6.7533333e+00 6.0100000e+00 0.0000000e+00 
6.7533333e+00 6.0300000e+00 0.0000000e+00 
6.7800000e+00 5.9700000e+00 0.0000000e+00 
6.7800000e+00 5.9900000e+00 0.0000000e+00 
6.7800000e+00 6.0100000e+00 0.0000000e+00 
6.7800000e+00 6.0300000e+00 0.0000000e+00 
6.8066667e+00 5.9700000e+00 0.0000000e+00 
6.8066667e+00 5.9900000e+00 0.0000000e+00 
6.8066667e+00 6.0100000e+00 0.0000000e+00 
6.8066667e+00 6.0300000e+00 0.0000000e+00 
6.8333333e+00 5.9700000e+00 0.0000000e+00 
6.8333333e+00 5.9900000e+00 0.0000000e+00 
6.8333333e+00 6.0100000e+00 0.0000000e+00 
6.8333333e+00 6.0300000e+00 0.0000000e+00 
6.8600000e+00 5.9700000e+00 0.0000000e+00 
6.8600000e+00 5.9900000e+00 0.0000000e+00 
6.8600000e+00 6.0100000e+00 0.0000000e+00 
6.8600000e+00 6.0300000e+00 0.0000000e+00 
6.8866667e+00 5.9700000e+00 0.0000000e+00 
6.8866667e+00 5.9900000e+00 0.0000000e+00 
6.8866667e+00 6.0100000e+00 0.0000000e+00 
6.8866667e+00 6.0300000e+00 0.0000000e+00 
6.9133333e+00 5.9700000e+00 0.0000000e+00 
6.9133333e+00 5.9900000e+00 0.0000000e+00 
6.9133333e+00 6.0100000e+00 0.0000000e+00 
6.9133333e+00 6.0300000e+00 0.0000000e+00 
6.9400000e+00 5.9700000e+00 0.0000000e+00 
6.9400000e+00 5.9900000e+00 0.0000000e+00 
6.9400000e+00 6.0100000e+00 0.0000000e+00 
6.9400000e+00 6.0300000e+00 0.0000000e+00 
6.9666667e+00 5.9700000e+00 0.0000000e+00 
6.9666667e+00 5.9900000e+00 0.0000000e+00 
6.9666667e+00 6.0100000e+00 0.0000000e+00 
6.9666667e+00 6.0300000e+00 0.0000000e+00 
6.9933333e+00 5.9700000e+00 0.0000000e+00 
6.9933333e+00 5.9900000e+00 0.0000000e+00 
6.9933333e+00 6.0100000e+00 0.0000000e+00 
6.9933333e+00 6.0300000e+00 0.0000000e+00 
7.0200000e+00 5.9700000e+00 0.0000000e+00 
7.0200000e+00 5.9900000e+00 0.0000000e+00 
[...]
POINT_DATA 604
FIELD FieldData 2
DISPLACEMENT 3 604  float
0.0000000e+00 0.0000000e+00 0.0000000e+00 
0.0000000e+00 0.0000000e+00 0.0000000e+00 
-1.1962618e-04 -6.8964714e-05 0.0000000e+00 
-3.8621126e-05 -4.3839073e-05 0.0000000e+00 
0.0000000e+00 0.0000000e+00 0.0000000e+00 
3.7906044e-05 -4.4041910e-05 0.0000000e+00 
-2.4437101e-04 -2.2596137e-04 0.0000000e+00 
-8.2499730e-05 -2.0534142e-04 0.0000000e+00 
0.0000000e+00 0.0000000e+00 0.0000000e+00 
1.1878483e-04 -6.9495445e-05 0.0000000e+00 
8.0208383e-05 -2.0608225e-04 0.0000000e+00 
-3.7076202e-04 -4.9599893e-04 0.0000000e+00 
2.4175397e-04 -2.2806968e-04 0.0000000e+00 
-1.2541217e-04 -4.7565137e-04 0.0000000e+00 
1.1977254e-04 -4.7723066e-04 0.0000000e+00 
3.6458797e-04 -5.0062504e-04 0.0000000e+00 
-4.9887202e-04 -8.7611387e-04 0.0000000e+00 
-1.7014184e-04 -8.5693782e-04 0.0000000e+00 
1.5841872e-04 -8.5971089e-04 0.0000000e+00 
4.8643221e-04 -8.8432509e-04 0.0000000e+00 
-6.2922247e-04 -1.3670482e-03 0.0000000e+00 
-2.1679836e-04 -1.3493490e-03 0.0000000e+00 
1.9533429e-04 -1.3536709e-03 0.0000000e+00 
6.0685675e-04 -1.3799029e-03 0.0000000e+00 
-7.6222957e-04 -1.9690983e-03 0.0000000e+00 
-2.6587816e-04 -1.9532444e-03 0.0000000e+00 
2.3007058e-04 -1.9594700e-03 0.0000000e+00 
7.2533272e-04 -1.9876634e-03 0.0000000e+00 
-8.9832631e-04 -2.6825606e-03 0.0000000e+00 
-3.1783865e-04 -2.6689170e-03 0.0000000e+00 
2.6213349e-04 -2.6774040e-03 0.0000000e+00 
8.4134299e-04 -2.7079091e-03 0.0000000e+00 
-1.0379472e-03 -3.5076905e-03 0.0000000e+00 
-3.7314401e-04 -3.4966242e-03 0.0000000e+00 
2.9103048e-04 -3.5077318e-03 0.0000000e+00 
9.5436598e-04 -3.5409006e-03 0.0000000e+00 
-1.1815289e-03 -4.4447050e-03 0.0000000e+00 
-4.3226001e-04 -4.4365846e-03 0.0000000e+00 
3.1626652e-04 -4.4506735e-03 0.0000000e+00 
1.0638779e-03 -4.4868590e-03 0.0000000e+00 
-1.3295090e-03 -5.4937833e-03 0.0000000e+00 
-4.9565391e-04 -5.4889781e-03 0.0000000e+00 
3.3734515e-04 -5.5064097e-03 0.0000000e+00 
1.1693524e-03 -5.5459661e-03 0.0000000e+00 
-1.4823259e-03 -6.6550659e-03 0.0000000e+00 
-5.6379363e-04 -6.6539458e-03 0.0000000e+00 
3.5376863e-04 -6.6750819e-03 0.0000000e+00 
1.2702636e-03 -6.7183630e-03 0.0000000e+00 
-1.6404176e-03 -7.9286546e-03 0.0000000e+00 
-6.3714721e-04 -7.9315893e-03 0.0000000e+00 
3.6503941e-04 -7.9567916e-03 0.0000000e+00 
1.3660823e-03 -8.0041516e-03 0.0000000e+00 
-1.8042216e-03 -9.3146118e-03 0.0000000e+00 
-7.1618209e-04 -9.3219703e-03 0.0000000e+00 
3.7066000e-04 -9.3515999e-03 0.0000000e+00 
1.4562828e-03 -9.4033922e-03 0.0000000e+00 
-1.9741744e-03 -1.0812961e-02 0.0000000e+00 
-8.0136458e-04 -1.0825112e-02 0.0000000e+00 
3.7013443e-04 -1.0859528e-02 0.0000000e+00 
1.5403384e-03 -1.0916105e-02 0.0000000e+00 
-2.1507103e-03 -1.2423687e-02 0.0000000e+00 
-8.9315914e-04 -1.2440996e-02 0.0000000e+00 
3.6296828e-04 -1.2480558e-02 0.0000000e+00 
1.6177260e-03 -1.2542270e-02 0.0000000e+00 
-2.3342611e-03 -1.4146736e-02 0.0000000e+00 
-9.9202767e-04 -1.4169567e-02 0.0000000e+00 
3.4866953e-04 -1.4214631e-02 0.0000000e+00 
1.6879232e-03 -1.4281826e-02 0.0000000e+00 
-2.5252552e-03 -1.5982012e-02 0.0000000e+00 
-1.0984289e-03 -1.6010728e-02 0.0000000e+00 
3.2674940e-04 -1.6061647e-02 0.0000000e+00 
1.7504105e-03 -1.6134672e-02 0.0000000e+00 
-2.7241169e-03 -1.7929383e-02 0.0000000e+00 
-1.2128176e-03 -1.7964341e-02 0.0000000e+00 
2.9672268e-04 -1.8021466e-02 0.0000000e+00 
1.8046737e-03 -1.8100664e-02 0.0000000e+00 
-2.9312664e-03 -1.9988675e-02 0.0000000e+00 
-1.3356443e-03 -2.0030232e-02 0.0000000e+00 
2.5810889e-04 -2.0093909e-02 0.0000000e+00 
1.8502012e-03 -2.0179619e-02 0.0000000e+00 
-3.1471186e-03 -2.2159676e-02 0.0000000e+00 
-1.4673540e-03 -2.2208181e-02 0.0000000e+00 
2.1043295e-04 -2.2278754e-02 0.0000000e+00 
1.8864874e-03 -2.2371310e-02 0.0000000e+00 
-3.3720833e-03 -2.4442133e-02 0.0000000e+00 
-1.6083862e-03 -2.4497933e-02 0.0000000e+00 
1.5322535e-04 -2.4575740e-02 0.0000000e+00 
1.9130353e-03 -2.4675474e-02 0.0000000e+00 
-3.6065634e-03 -2.6835756e-02 0.0000000e+00 
-1.7591742e-03 -2.6899192e-02 0.0000000e+00 
8.6023121e-05 -2.6984567e-02 0.0000000e+00 
1.9293512e-03 -2.7091804e-02 0.0000000e+00 
-3.8509543e-03 -2.9340214e-02 0.0000000e+00 
-1.9201439e-03 -2.9411623e-02 0.0000000e+00 
8.3700536e-06 -2.9504892e-02 0.0000000e+00 
1.9349486e-03 -2.9619953e-02 0.0000000e+00 
-4.1056436e-03 -3.1955138e-02 0.0000000e+00 
-2.0917133e-03 -3.2034850e-02 0.0000000e+00 
-8.0182937e-05 -3.2136335e-02 0.0000000e+00 
1.9293495e-03 -3.2259532e-02 0.0000000e+00 
-4.3710098e-03 -3.4680117e-02 0.0000000e+00 
-2.2742923e-03 -3.4768455e-02 0.0000000e+00 
-1.8007602e-04 -3.4878472e-02 0.0000000e+00 
1.9120798e-03 -3.5010112e-02 0.0000000e+00 
-4.6474226e-03 -3.7514701e-02 0.0000000e+00 
-2.4682813e-03 -3.7611980e-02 0.0000000e+00 
-2.9174066e-04 -3.7730836e-02 0.0000000e+00 
1.8826792e-03 -3.7871221e-02 0.0000000e+00 
-4.9352425e-03 -4.0458398e-02 0.0000000e+00 
-2.6740711e-03 -4.0564928e-02 0.0000000e+00 
-4.1559804e-04 -4.0692924e-02 0.0000000e+00 
1.8406957e-03 -4.0842344e-02 0.0000000e+00 
-5.2348193e-03 -4.3510678e-02 0.0000000e+00 
-2.8920424e-03 -4.3626758e-02 0.0000000e+00 
-5.5205899e-04 -4.3764186e-02 0.0000000e+00 
1.7856888e-03 -4.3922928e-02 0.0000000e+00 
-5.5464922e-03 -4.6670971e-02 0.0000000e+00 
-3.1225645e-03 -4.6796893e-02 0.0000000e+00 
-7.0152321e-04 -4.6944037e-02 0.0000000e+00 
1.7172282e-03 -4.7112376e-02 0.0000000e+00 
-5.8705890e-03 -4.9938665e-02 0.0000000e+00 
-3.3659954e-03 -5.0074714e-02 0.0000000e+00 
-8.6437891e-04 -5.0231849e-02 0.0000000e+00 
1.6348963e-03 -5.0410052e-02 0.0000000e+00 
-6.2074252e-03 -5.3313113e-02 0.0000000e+00 
-3.6226811e-03 -5.3459561e-02 0.0000000e+00 
-1.0410019e-03 -5.3626952e-02 0.0000000e+00 
1.5382868e-03 -5.3815278e-02 0.0000000e+00 
-6.5573041e-03 -5.6793624e-02 0.0000000e+00 
-3.8929545e-03 -5.6950735e-02 0.0000000e+00 
-1.2317551e-03 -5.7128639e-02 0.0000000e+00 
1.4270070e-03 -5.7327335e-02 0.0000000e+00 
-6.9205155e-03 -6.0379472e-02 0.0000000e+00 
-4.1771356e-03 -6.0547499e-02 0.0000000e+00 
-1.4369881e-03 -6.0736161e-02 0.0000000e+00 
1.3006782e-03 -6.0945466e-02 0.0000000e+00 
-7.2973361e-03 -6.4069888e-02 0.0000000e+00 
-4.4755302e-03 -6.4249075e-02 0.0000000e+00 
-1.6570362e-03 -6.4448730e-02 0.0000000e+00 
1.1589352e-03 -6.4668871e-02 0.0000000e+00 
-7.6880286e-03 -6.7864069e-02 0.0000000e+00 
-4.7884302e-03 -6.8054647e-02 0.0000000e+00 
-1.8922196e-03 -6.8265518e-02 0.0000000e+00 
1.0014274e-03 -6.8496712e-02 0.0000000e+00 
-8.0928422e-03 -7.1761171e-02 0.0000000e+00 
-5.1161125e-03 -7.1963360e-02 0.0000000e+00 
-2.1428439e-03 -7.2185661e-02 0.0000000e+00 
8.2782511e-04 -7.2428113e-02 0.0000000e+00 
-8.5120108e-03 -7.5760315e-02 0.0000000e+00 
-5.4588391e-03 -7.5974324e-02 0.0000000e+00 
-2.4091987e-03 -7.6208256e-02 0.0000000e+00 
6.3780844e-04 -7.6462160e-02 0.0000000e+00 
-8.9457518e-03 -7.9860585e-02 0.0000000e+00 
-5.8168563e-03 -8.0086611e-02 0.0000000e+00 
-2.6915583e-03 -8.0332363e-02 0.0000000e+00 
4.3107645e-04 -8.0597901e-02 0.0000000e+00 
-9.3942673e-03 -8.4061029e-02 0.0000000e+00 
-6.1903941e-03 -8.4299255e-02 0.0000000e+00 
-2.9901815e-03 -8.4557004e-02 0.0000000e+00 
2.0734393e-04 -8.4834346e-02 0.0000000e+00 
-9.8577421e-03 -8.8360655e-02 0.0000000e+00 
-6.5796658e-03 -8.8611254e-02 0.0000000e+00 
-3.3053093e-03 -8.8881163e-02 0.0000000e+00 
-3.3663337e-05 -8.9170465e-02 0.0000000e+00 
-1.0336345e-02 -9.2758438e-02 0.0000000e+00 
-6.9848676e-03 -9.3021566e-02 0.0000000e+00 
-3.6371656e-03 -9.3303786e-02 0.0000000e+00 
-2.9219487e-04 -9.3605192e-02 0.0000000e+00 
-1.0830228e-02 -9.7253312e-02 0.0000000e+00 
-7.4061785e-03 -9.7529114e-02 0.0000000e+00 
-3.9859558e-03 -9.7823782e-02 0.0000000e+00 
-5.6848177e-04 -9.8137422e-02 0.0000000e+00 
-1.1339527e-02 -1.0184418e-01 0.0000000e+00 
-7.8437602e-03 -1.0213279e-01 0.0000000e+00 
-4.3518673e-03 -1.0244003e-01 0.0000000e+00 
-8.6273755e-04 -1.0276602e-01 0.0000000e+00 
-1.1864362e-02 -1.0652991e-01 0.0000000e+00 
-8.2977564e-03 -1.0683144e-01 0.0000000e+00 
-4.7350689e-03 -1.0715136e-01 0.0000000e+00 
-1.1751555e-03 -1.0748981e-01 0.0000000e+00 
-1.2404832e-02 -1.1130934e-01 0.0000000e+00 
-8.7682932e-03 -1.1162389e-01 0.0000000e+00 
-5.1357109e-03 -1.1195659e-01 0.0000000e+00 
-1.5059107e-03 -1.1230759e-01 0.0000000e+00 
-1.2961025e-02 -1.1618126e-01 0.0000000e+00 
-9.2554786e-03 -1.1650893e-01 0.0000000e+00 
-5.5539238e-03 -1.1685450e-01 0.0000000e+00 
-1.8551573e-03 -1.1721812e-01 0.0000000e+00 
-1.3533008e-02 -1.2114447e-01 0.0000000e+00 
-9.7594031e-03 -1.2148532e-01 0.0000000e+00 
-5.9898203e-03 -1.2184382e-01 0.0000000e+00 
-2.2230284e-03 -1.2222013e-01 0.0000000e+00 
-1.4120833e-02 -1.2619769e-01 0.0000000e+00 
-1.0280139e-02 -1.2655179e-01 0.0000000e+00 
-6.4434937e-03 -1.2692328e-01 0.0000000e+00 
-2.6096388e-03 -1.2731233e-01 0.0000000e+00 
-1.4724536e-02 -1.3133965e-01 0.0000000e+00 
-1.0817743e-02 -1.3170705e-01 0.0000000e+00 
-6.9150185e-03 -1.3209157e-01 0.0000000e+00 
-3.0150817e-03 -1.3249339e-01 0.0000000e+00 
-1.5344137e-02 -1.3656904e-01 0.0000000e+00 
-1.1372250e-02 -1.3694977e-01 0.0000000e+00 
-7.4044506e-03 -1.3734735e-01 0.0000000e+00 
-3.4394323e-03 -1.3776197e-01 0.0000000e+00 
-1.5979638e-02 -1.4188454e-01 0.0000000e+00 
-1.1943682e-02 -1.4227862e-01 0.0000000e+00 
-7.9118270e-03 -1.4268927e-01 0.0000000e+00 
-3.8827444e-03 -1.4311669e-01 0.0000000e+00 
-1.6631025e-02 -1.4728478e-01 0.0000000e+00 
-1.2532041e-02 -1.4769221e-01 0.0000000e+00 
-8.4371661e-03 -1.4811594e-01 0.0000000e+00 
-4.3450539e-03 -1.4855617e-01 0.0000000e+00 
-1.7298270e-02 -1.5276840e-01 0.0000000e+00 
-1.3137312e-02 -1.5318918e-01 0.0000000e+00 
-8.9804682e-03 -1.5362596e-01 0.0000000e+00 
-4.8263722e-03 -1.5407899e-01 0.0000000e+00 
-1.7981330e-02 -1.5833400e-01 0.0000000e+00 
-1.3759465e-02 -1.5876810e-01 0.0000000e+00 
-9.5417153e-03 -1.5921793e-01 0.0000000e+00 
-5.3266983e-03 -1.5968372e-01 0.0000000e+00 
-1.8680142e-02 -1.6398017e-01 0.0000000e+00 
-1.4398451e-02 -1.6442757e-01 0.0000000e+00 
-1.0120872e-02 -1.6489039e-01 0.0000000e+00 
-5.8460064e-03 -1.6536891e-01 0.0000000e+00 
-1.9394629e-02 -1.6970549e-01 0.0000000e+00 
-1.5054205e-02 -1.7016613e-01 0.0000000e+00 
-1.0717887e-02 -1.7064191e-01 0.0000000e+00 
-6.3842573e-03 -1.7113310e-01 0.0000000e+00 
-2.0124699e-02 -1.7550852e-01 0.0000000e+00 
-1.5726648e-02 -1.7598234e-01 0.0000000e+00 
-1.1332690e-02 -1.7647101e-01 0.0000000e+00 
-6.9413961e-03 -1.7697480e-01 0.0000000e+00 
-2.0870245e-02 -1.8138779e-01 0.0000000e+00 
-1.6415680e-02 -1.8187473e-01 0.0000000e+00 
-1.1965195e-02 -1.8237621e-01 0.0000000e+00 
-7.5173459e-03 -1.8289252e-01 0.0000000e+00 
-2.1631145e-02 -1.8734183e-01 0.0000000e+00 
-1.7121191e-02 -1.8784180e-01 0.0000000e+00 
-1.2615298e-02 -1.8835601e-01 0.0000000e+00 
-8.1120100e-03 -1.8888476e-01 0.0000000e+00 
-2.2407267e-02 -1.9336917e-01 0.0000000e+00 
-1.7843054e-02 -1.9388206e-01 0.0000000e+00 
-1.3282878e-02 -1.9440891e-01 0.0000000e+00 
-8.7252773e-03 -1.9495000e-01 0.0000000e+00 
-2.3198461e-02 -1.9946830e-01 0.0000000e+00 
-1.8581126e-02 -1.9999402e-01 0.0000000e+00 
-1.3967801e-02 -2.0053338e-01 0.0000000e+00 
-9.3570176e-03 -2.0108670e-01 0.0000000e+00 
-2.4004570e-02 -2.0563773e-01 0.0000000e+00 
-1.9335252e-02 -2.0617615e-01 0.0000000e+00 
-1.4669914e-02 -2.0672792e-01 0.0000000e+00 
-1.0007083e-02 -2.0729334e-01 0.0000000e+00 
-2.4825423e-02 -2.1187595e-01 0.0000000e+00 
-2.0105265e-02 -2.1242695e-01 0.0000000e+00 
-1.5389053e-02 -2.1299099e-01 0.0000000e+00 
-1.0675312e-02 -2.1356839e-01 0.0000000e+00 
-2.5660839e-02 -2.1818145e-01 0.0000000e+00 
-2.0890985e-02 -2.1874489e-01 0.0000000e+00 
-1.6125040e-02 -2.1932106e-01 0.0000000e+00 
-1.1361526e-02 -2.1991031e-01 0.0000000e+00 
-2.6510625e-02 -2.2455274e-01 0.0000000e+00 
-2.1692219e-02 -2.2512846e-01 0.0000000e+00 
-1.6877682e-02 -2.2571662e-01 0.0000000e+00 
-1.2065537e-02 -2.2631755e-01 0.0000000e+00 
-2.7374582e-02 -2.3098828e-01 0.0000000e+00 
-2.2508766e-02 -2.3157613e-01 0.0000000e+00 
-1.7646776e-02 -2.3217613e-01 0.0000000e+00 
-1.2787136e-02 -2.3278859e-01 0.0000000e+00 
-2.8252496e-02 -2.3748659e-01 0.0000000e+00 
-2.3340409e-02 -2.3808640e-01 0.0000000e+00 
-1.8432105e-02 -2.3869806e-01 0.0000000e+00 
-1.3526108e-02 -2.3932189e-01 0.0000000e+00 
-2.9144144e-02 -2.4404614e-01 0.0000000e+00 
-2.4186927e-02 -2.4465775e-01 0.0000000e+00 
-1.9233443e-02 -2.4528090e-01 0.0000000e+00 
-1.4282222e-02 -2.4591593e-01 0.0000000e+00 
-3.0049295e-02 -2.5066545e-01 0.0000000e+00 
-2.5048083e-02 -2.5128867e-01 0.0000000e+00 
-2.0050554e-02 -2.5192313e-01 0.0000000e+00 
-1.5055240e-02 -2.5256918e-01 0.0000000e+00 
-3.0967710e-02 -2.5734300e-01 0.0000000e+00 
-2.5923633e-02 -2.5797765e-01 0.0000000e+00 
-2.0883188e-02 -2.5862323e-01 0.0000000e+00 
-1.5844911e-02 -2.5928011e-01 0.0000000e+00 
-3.1899139e-02 -2.6407731e-01 0.0000000e+00 
-2.6813327e-02 -2.6472318e-01 0.0000000e+00 
-2.1731091e-02 -2.6537970e-01 0.0000000e+00 
-1.6650974e-02 -2.6604722e-01 0.0000000e+00 
-3.2843327e-02 -2.7086689e-01 0.0000000e+00 
-2.7716901e-02 -2.7152379e-01 0.0000000e+00 
-2.2593994e-02 -2.7219103e-01 0.0000000e+00 
-1.7473157e-02 -2.7286899e-01 0.0000000e+00 
-3.3800013e-02 -2.7771025e-01 0.0000000e+00 
-2.8634089e-02 -2.7837796e-01 0.0000000e+00 
-2.3471625e-02 -2.7905573e-01 0.0000000e+00 
-1.8311179e-02 -2.7974392e-01 0.0000000e+00 
-3.4768928e-02 -2.8460592e-01 0.0000000e+00 
-2.9564615e-02 -2.8528424e-01 0.0000000e+00 
-2.4363700e-02 -2.8597232e-01 0.0000000e+00 
-1.9164752e-02 -2.8667053e-01 0.0000000e+00 
-3.5749800e-02 -2.9155243e-01 0.0000000e+00 
-3.0508197e-02 -2.9224113e-01 0.0000000e+00 
-2.5269931e-02 -2.9293932e-01 0.0000000e+00 
-2.0033579e-02 -2.9364734e-01 0.0000000e+00 
-3.6742348e-02 -2.9854834e-01 0.0000000e+00 
-3.1464548e-02 -2.9924720e-01 0.0000000e+00 
-2.6190021e-02 -2.9995526e-01 0.0000000e+00 
-2.0917355e-02 -3.0067288e-01 0.0000000e+00 
-3.7746291e-02 -3.0559219e-01 0.0000000e+00 
-3.2433376e-02 -3.0630099e-01 0.0000000e+00 
-2.7123667e-02 -3.0701870e-01 0.0000000e+00 
-2.1815768e-02 -3.0774568e-01 0.0000000e+00 
-3.8761341e-02 -3.1268256e-01 0.0000000e+00 
-3.3414383e-02 -3.1340106e-01 0.0000000e+00 
-2.8070564e-02 -3.1412819e-01 0.0000000e+00 
-2.2728501e-02 -3.1486433e-01 0.0000000e+00 
-3.9787209e-02 -3.1981803e-01 0.0000000e+00 
-3.4407269e-02 -3.2054600e-01 0.0000000e+00 
-2.9030400e-02 -3.2128232e-01 0.0000000e+00 
-2.3655232e-02 -3.2202737e-01 0.0000000e+00 
-4.0823603e-02 -3.2699719e-01 0.0000000e+00 
-3.5411729e-02 -3.2773439e-01 0.0000000e+00 
-3.0002858e-02 -3.2847968e-01 0.0000000e+00 
-2.4595634e-02 -3.2923342e-01 0.0000000e+00 
-4.1870226e-02 -3.3421866e-01 0.0000000e+00 
-3.6427457e-02 -3.3496486e-01 0.0000000e+00 
-3.0987620e-02 -3.3571887e-01 0.0000000e+00 
-2.5549376e-02 -3.3648106e-01 0.0000000e+00 
-4.2926783e-02 -3.4148107e-01 0.0000000e+00 
-3.7454143e-02 -3.4223602e-01 0.0000000e+00 
-3.1984364e-02 -3.4299852e-01 0.0000000e+00 
-2.6516123e-02 -3.4376893e-01 0.0000000e+00 
-4.3992976e-02 -3.4878306e-01 0.0000000e+00 
-3.8491477e-02 -3.4954653e-01 0.0000000e+00 
-3.2992766e-02 -3.5031727e-01 0.0000000e+00 
-2.7495539e-02 -3.5109567e-01 0.0000000e+00 
-4.5068508e-02 -3.5612330e-01 0.0000000e+00 
-3.9539145e-02 -3.5689503e-01 0.0000000e+00 
-3.4012500e-02 -3.5767379e-01 0.0000000e+00 
-2.8487285e-02 -3.5845993e-01 0.0000000e+00 
-4.6153076e-02 -3.6350046e-01 0.0000000e+00 
-4.0596834e-02 -3.6428021e-01 0.0000000e+00 
-3.5043239e-02 -3.6506674e-01 0.0000000e+00 
-2.9491019e-02 -3.6586039e-01 0.0000000e+00 
-4.7246380e-02 -3.7091324e-01 0.0000000e+00 
-4.1664230e-02 -3.7170077e-01 0.0000000e+00 
-3.6084655e-02 -3.7249483e-01 0.0000000e+00 
-3.0506400e-02 -3.7329575e-01 0.0000000e+00 
-4.8348119e-02 -3.7836036e-01 0.0000000e+00 
-4.2741018e-02 -3.7915543e-01 0.0000000e+00 
-3.7136419e-02 -3.7995677e-01 0.0000000e+00 
-3.1533086e-02 -3.8076473e-01 0.0000000e+00 
-4.9457993e-02 -3.8584055e-01 0.0000000e+00 
-4.3826882e-02 -3.8664290e-01 0.0000000e+00 
-3.8198202e-02 -3.8745129e-01 0.0000000e+00 
-3.2570734e-02 -3.8826605e-01 0.0000000e+00 
-5.0575702e-02 -3.9335255e-01 0.0000000e+00 
-4.4921510e-02 -3.9416196e-01 0.0000000e+00 
-3.9269675e-02 -3.9497715e-01 0.0000000e+00 
-3.3618999e-02 -3.9579847e-01 0.0000000e+00 
-5.1700951e-02 -4.0089516e-01 0.0000000e+00 
-4.6024589e-02 -4.0171136e-01 0.0000000e+00 
-4.0350510e-02 -4.0253311e-01 0.0000000e+00 
-3.4677539e-02 -4.0336076e-01 0.0000000e+00 
-5.2833444e-02 -4.0846714e-01 0.0000000e+00 
-4.7135807e-02 -4.0928990e-01 0.0000000e+00 
-4.1440382e-02 -4.1011799e-01 0.0000000e+00 
-3.5746011e-02 -4.1095173e-01 0.0000000e+00 
-5.3972887e-02 -4.1606733e-01 0.0000000e+00 
-4.8254856e-02 -4.1689641e-01 0.0000000e+00 
-4.2538963e-02 -4.1773058e-01 0.0000000e+00 
-3.6824074e-02 -4.1857019e-01 0.0000000e+00 
-5.5118994e-02 -4.2369455e-01 0.0000000e+00 
-4.9381430e-02 -4.2452971e-01 0.0000000e+00 
-4.3645933e-02 -4.2536974e-01 0.0000000e+00 
-3.7911389e-02 -4.2621497e-01 0.0000000e+00 
-5.6271476e-02 -4.3134765e-01 0.0000000e+00 
-5.0515226e-02 -4.3218865e-01 0.0000000e+00 
-4.4760971e-02 -4.3303431e-01 0.0000000e+00 
-3.9007619e-02 -4.3388495e-01 0.0000000e+00 
-5.7430051e-02 -4.3902553e-01 0.0000000e+00 
-5.1655944e-02 -4.3987214e-01 0.0000000e+00 
-4.5883759e-02 -4.4072319e-01 0.0000000e+00 
-4.0112429e-02 -4.4157900e-01 0.0000000e+00 
-5.8594445e-02 -4.4672708e-01 0.0000000e+00 
-5.2803290e-02 -4.4757906e-01 0.0000000e+00 
-4.7013984e-02 -4.4843528e-01 0.0000000e+00 
-4.1225487e-02 -4.4929605e-01 0.0000000e+00 
-5.9764384e-02 -4.5445122e-01 0.0000000e+00 
-5.3956971e-02 -4.5530835e-01 0.0000000e+00 
-4.8151338e-02 -4.5616951e-01 0.0000000e+00 
-4.2346466e-02 -4.5703502e-01 0.0000000e+00 
-6.0939598e-02 -4.6219691e-01 0.0000000e+00 
-5.5116701e-02 -4.6305896e-01 0.0000000e+00 
-4.9295515e-02 -4.6392485e-01 0.0000000e+00 
-4.3475044e-02 -4.6479487e-01 0.0000000e+00 
-6.2119826e-02 -4.6996312e-01 0.0000000e+00 
-5.6282197e-02 -4.7082987e-01 0.0000000e+00 
-5.0446213e-02 -4.7170027e-01 0.0000000e+00 
-4.4610901e-02 -4.7257460e-01 0.0000000e+00 
-6.3304802e-02 -4.7774885e-01 0.0000000e+00 
-5.7453181e-02 -4.7862009e-01 0.0000000e+00 
-5.1603137e-02 -4.7949478e-01 0.0000000e+00 
-4.5753722e-02 -4.8037321e-01 0.0000000e+00 
-6.4494275e-02 -4.8555312e-01 0.0000000e+00 
-5.8629380e-02 -4.8642863e-01 0.0000000e+00 
-5.2765995e-02 -4.8730740e-01 0.0000000e+00 
-4.6903197e-02 -4.8818973e-01 0.0000000e+00 
-6.5687998e-02 -4.9337499e-01 0.0000000e+00 
-5.9810528e-02 -4.9425455e-01 0.0000000e+00 
-5.3934501e-02 -4.9513720e-01 0.0000000e+00 
-4.8059021e-02 -4.9602323e-01 0.0000000e+00 
-6.6885730e-02 -5.0121351e-01 0.0000000e+00 
-6.0996362e-02 -5.0209692e-01 0.0000000e+00 
-5.5108374e-02 -5.0298326e-01 0.0000000e+00 
-4.9220894e-02 -5.0387279e-01 0.0000000e+00 
-6.8087235e-02 -5.0906780e-01 0.0000000e+00 
-6.2186631e-02 -5.0995486e-01 0.0000000e+00 
-5.6287341e-02 -5.1084468e-01 0.0000000e+00 
-5.0388522e-02 -5.1173752e-01 0.0000000e+00 
-6.9292288e-02 -5.1693697e-01 0.0000000e+00 
-6.3381084e-02 -5.1782749e-01 0.0000000e+00 
-5.7471133e-02 -5.1872060e-01 0.0000000e+00 
-5.1561616e-02 -5.1961656e-01 0.0000000e+00 
-7.0500668e-02 -5.2482018e-01 0.0000000e+00 
-6.4579483e-02 -5.2571396e-01 0.0000000e+00 
-5.8659490e-02 -5.2661019e-01 0.0000000e+00 
-5.2739896e-02 -5.2750909e-01 0.0000000e+00 
-7.1712160e-02 -5.3271661e-01 0.0000000e+00 
-6.5781593e-02 -5.3361347e-01 0.0000000e+00 
-5.9852156e-02 -5.3451262e-01 0.0000000e+00 
-5.3923087e-02 -5.3541430e-01 0.0000000e+00 
-7.2926561e-02 -5.4062546e-01 0.0000000e+00 
-6.6987187e-02 -5.4152522e-01 0.0000000e+00 
-6.1048885e-02 -5.4242713e-01 0.0000000e+00 
-5.5110919e-02 -5.4333140e-01 0.0000000e+00 
-7.4143671e-02 -5.4854597e-01 0.0000000e+00 
-6.8196047e-02 -5.4944846e-01 0.0000000e+00 
-6.2249436e-02 -5.5035295e-01 0.0000000e+00 
-5.6303133e-02 -5.5125966e-01 0.0000000e+00 
-7.5363301e-02 -5.5647740e-01 0.0000000e+00 
-6.9407962e-02 -5.5738244e-01 0.0000000e+00 
-6.3453579e-02 -5.5828936e-01 0.0000000e+00 
-5.7499474e-02 -5.5919835e-01 0.0000000e+00 