# vtk DataFile Version 4.0
vtk output
ASCII
DATASET UNSTRUCTURED_GRID
POINTS 604 float
5.5000000e+00 5.9700000e+00 0.0000000e+00 
5.5000000e+00 5.9900000e+00 0.0000000e+00 
5.5266667e+00 5.9700000e+00 0.0000000e+00 
5.5266667e+00 5.9900000e+00 0.0000000e+00 
5.5000000e+00 6.0100000e+00 0.0000000e+00 
5.5266667e+00 6.0100000e+00 0.0000000e+00 
5.5533333e+00 5.9700000e+00 0.0000000e+00 
5.5533333e+00 5.9900000e+00 0.0000000e+00 
5.5000000e+00 6.0300000e+00 0.0000000e+00 
5.5266667e+00 6.0300000e+00 0.0000000e+00 
5.5533333e+00 6.0100000e+00 0.0000000e+00 
5.5800000e+00 5.9700000e+00 0.0000000e+00 
5.5533333e+00 6.0300000e+00 0.0000000e+00 
5.5800000e+00 5.9900000e+00 0.0000000e+00 
5.5800000e+00 6.0100000e+00 0.0000000e+00 
5.5800000e+00 6.0300000e+00 0.0000000e+00 
5.6066667e+00 5.9700000e+00 0.0000000e+00 
5.6066667e+00 5.9900000e+00 0.0000000e+00 
5.6066667e+00 6.0100000e+00 0.0000000e+00 
5.6066667e+00 6.0300000e+00 0.0000000e+00 
5.6333333e+00 5.9700000e+00 0.0000000e+00 
5.6333333e+00 5.9900000e+00 0.0000000e+00 
5.6333333e+00 6.0100000e+00 0.0000000e+00 
5.6333333e+00 6.0300000e+00 0.0000000e+00 
5.6600000e+00 5.9700000e+00 0.0000000e+00 
5.6600000e+00 5.9900000e+00 0.0000000e+00 
5.6600000e+00 6.0100000e+00 0.0000000e+00 
5.6600000e+00 6.0300000e+00 0.0000000e+00 
5.6866667e+00 5.9700000e+00 0.0000000e+00 
5.6866667e+00 5.9900000e+00 0.0000000e+00 
5.6866667e+00 6.0100000e+00 0.0000000e+00 
5.6866667e+00 6.0300000e+00 0.0000000e+00 
5.7133333e+00 5.9700000e+00 0.0000000e+00 
5.7133333e+00 5.9900000e+00 0.0000000e+00 
5.7133333e+00 6.0100000e+00 0.0000000e+00 
5.7133333e+00 6.0300000e+00 0.0000000e+00 
5.7400000e+00 5.9700000e+00 0.0000000e+00 
5.7400000e+00 5.9900000e+00 0.0000000e+00 
5.7400000e+00 6.0100000e+00 0.0000000e+00 
5.7400000e+00 6.0300000e+00 0.0000000e+00 
5.7666667e+00 5.9700000e+00 0.0000000e+00 
5.7666667e+00 5.9900000e+00 0.0000000e+00 
5.7666667e+00 6.0100000e+00 0.0000000e+00 
5.7666667e+00 6.0300000e+00 0.0000000e+00 
5.7933333e+00 5.9700000e+00 0.0000000e+00 
5.7933333e+00 5.9900000e+00 0.0000000e+00 
5.7933333e+00 6.0100000e+00 0.0000000e+00 
5.7933333e+00 6.0300000e+00 0.0000000e+00 
5.8200000e+00 5.9700000e+00 0.0000000e+00 
5.8200000e+00 5.9900000e+00 0.0000000e+00 
5.8200000e+00 6.0100000e+00 0.0000000e+00 
5.8200000e+00 6.0300000e+00 0.0000000e+00 
5.8466667e+00 5.9700000e+00 0.0000000e+00 
5.8466667e+00 5.9900000e+00 0.0000000e+00 
5.8466667e+00 6.0100000e+00 0.0000000e+00 
5.8466667e+00 6.0300000e+00 0.0000000e+00 
5.8733333e+00 5.9700000e+00 0.0000000e+00 
5.8733333e+00 5.9900000e+00 0.0000000e+00 
5.8733333e+00 6.0100000e+00 0.0000000e+00 
5.8733333e+00 6.0300000e+00 0.0000000e+00 
5.9000000e+00 5.9700000e+00 0.0000000e+00 
5.9000000e+00 5.9900000e+00 0.0000000e+00 
5.9000000e+00 6.0100000e+00 0.0000000e+00 
5.9000000e+00 6.0300000e+00 0.0000000e+00 
5.9266667e+00 5.9700000e+00 0.0000000e+00 
5.9266667e+00 5.9900000e+00 0.0000000e+00 
5.9266667e+00 6.0100000e+00 0.0000000e+00 
5.9266667e+00 6.0300000e+00 0.0000000e+00 
5.9533333e+00 5.9700000e+00 0.0000000e+00 
5.9533333e+00 5.9900000e+00 0.0000000e+00 
5.9533333e+00 6.0100000e+00 0.0000000e+00 
5.9533333e+00 6.0300000e+00 0.0000000e+00 
5.9800000e+00 5.9700000e+00 0.0000000e+00 
5.9800000e+00 5.9900000e+00 0.0000000e+00 
5.9800000e+00 6.0100000e+00 0.0000000e+00 
5.9800000e+00 6.0300000e+00 0.0000000e+00 
6.0066667e+00 5.9700000e+00 0.0000000e+00 
6.0066667e+00 5.9900000e+00 0.0000000e+00 
6.0066667e+00 6.0100000e+00 0.0000000e+00 
6.0066667e+00 6.0300000e+00 0.0000000e+00 
6.0333333e+00 5.9700000e+00 0.0000000e+00 
6.0333333e+00 5.9900000e+00 0.0000000e+00 
6.0333333e+00 6.0100000e+00 0.0000000e+00 
6.0333333e+00 6.0300000e+00 0.0000000e+00 
6.0600000e+00 5.9700000e+00 0.0000000e+00 
6.0600000e+00 5.9900000e+00 0.0000000e+00 
6.0600000e+00 6.0100000e+00 0.0000000e+00 
6.0600000e+00 6.0300000e+00 0.0000000e+00 
6.0866667e+00 5.9700000e+00 0.0000000e+00 
6.0866667e+00 5.9900000e+00 0.0000000e+00 
6.0866667e+00 6.0100000e+00 0.0000000e+00 
6.0866667e+00 6.0300000e+00 0.0000000e+00 
6.1133333e+00 5.9700000e+00 0.0000000e+00 
6.1133333e+00 5.9900000e+00 0.0000000e+00 
6.1133333e+00 6.0100000e+00 0.0000000e+00 
6.1133333e+00 6.0300000e+00 0.0000000e+00 
6.1400000e+00 5.9700000e+00 0.0000000e+00 
6.1400000e+00 5.9900000e+00 0.0000000e+00 
6.1400000e+00 6.0100000e+00 0.0000000e+00 
6.1400000e+00 6.0300000e+00 0.0000000e+00 
6.1666667e+00 5.9700000e+00 0.0000000e+00 
6.1666667e+00 5.9900000e+00 0.0000000e+00 
6.1666667e+00 6.0100000e+00 0.0000000e+00 
6.1666667e+00 6.0300000e+00 0.0000000e+00 
6.1933333e+00 5.9700000e+00 0.0000000e+00 
6.1933333e+00 5.9900000e+00 0.0000000e+00 
6.1933333e+00 6.0100000e+00 0.0000000e+00 
6.1933333e+00 6.0300000e+00 0.0000000e+00 
6.2200000e+00 5.9700000e+00 0.0000000e+00 
6.2200000e+00 5.9900000e+00 0.0000000e+00 
6.2200000e+00 6.0100000e+00 0.0000000e+00 
6.2200000e+00 6.0300000e+00 0.0000000e+00 
6.2466667e+00 5.9700000e+00 0.0000000e+00 
6.2466667e+00 5.9900000e+00 0.0000000e+00 
6.2466667e+00 6.0100000e+00 0.0000000e+00 
6.2466667e+00 6.0300000e+00 0.0000000e+00 
6.2733333e+00 5.9700000e+00 0.0000000e+00 
6.2733333e+00 5.9900000e+00 0.0000000e+00 
6.2733333e+00 6.0100000e+00 0.0000000e+00 
6.2733333e+00 6.0300000e+00 0.0000000e+00 
6.3000000e+00 5.9700000e+00 0.0000000e+00 
6.3000000e+00 5.9900000e+00 0.0000000e+00 
6.3000000e+00 6.0100000e+00 0.0000000e+00 
6.3000000e+00 6.0300000e+00 0.0000000e+00 
6.3266667e+00 5.9700000e+00 0.0000000e+00 
6.3266667e+00 5.9900000e+00 0.0000000e+00 
6.3266667e+00 6.0100000e+00 0.0000000e+00 
6.3266667e+00 6.0300000e+00 0.0000000e+00 
6.3533333e+00 5.9700000e+00 0.0000000e+00 
6.3533333e+00 5.9900000e+00 0.0000000e+00 
6.3533333e+00 6.0100000e+00 0.0000000e+00 
6.3533333e+00 6.0300000e+00 0.0000000e+00 
6.3800000e+00 5.9700000e+00 0.0000000e+00 
6.3800000e+00 5.9900000e+00 0.0000000e+00 
6.3800000e+00 6.0100000e+00 0.0000000e+00 
6.3800000e+00 6.0300000e+00 0.0000000e+00 
6.4066667e+00 5.9700000e+00 0.0000000e+00 
6.4066667e+00 5.9900000e+00 0.0000000e+00 
6.4066667e+00 6.0100000e+00 0.0000000e+00 
6.4066667e+00 6.0300000e+00 0.0000000e+00 
6.4333333e+00 5.9700000e+00 0.0000000e+00 
6.4333333e+00 5.9900000e+00 0.0000000e+00 
6.4333333e+00 6.0100000e+00 0.0000000e+00 
6.4333333e+00 6.0300000e+00 0.0000000e+00 
6.4600000e+00 5.9700000e+00 0.0000000e+00 
6.4600000e+00 5.9900000e+00 0.0000000e+00 
6.4600000e+00 6.0100000e+00 0.0000000e+00 
6.4600000e+00 6.0300000e+00 0.0000000e+00 
6.4866667e+00 5.9700000e+00 0.0000000e+00 
6.4866667e+00 5.9900000e+00 0.0000000e+00 
6.4866667e+00 6.0100000e+00 0.0000000e+00 
6.4866667e+00 6.0300000e+00 0.0000000e+00 
6.5133333e+00 5.9700000e+00 0.0000000e+00 
6.5133333e+00 5.9900000e+00 0.0000000e+00 
6.5133333e+00 6.0100000e+00 0.0000000e+00 
6.5133333e+00 6.0300000e+00 0.0000000e+00 
6.5400000e+00 5.9700000e+00 0.0000000e+00 
6.5400000e+00 5.9900000e+00 0.0000000e+00 
6.5400000e+00 6.0100000e+00 0.0000000e+00 
6.5400000e+00 6.0300000e+00 0.0000000e+00 
6.5666667e+00 5.9700000e+00 0.0000000e+00 
6.5666667e+00 5.9900000e+00 0.0000000e+00 
6.5666667e+00 6.0100000e+00 0.0000000e+00 
6.5666667e+00 6.0300000e+00 0.0000000e+00 
6.5933333e+00 5.9700000e+00 0.0000000e+00 
6.5933333e+00 5.9900000e+00 0.0000000e+00 
6.5933333e+00 6.0100000e+00 0.0000000e+00 
6.5933333e+00 6.0300000e+00 0.0000000e+00 
6.6200000e+00 5.9700000e+00 0.0000000e+00 
6.6200000e+00 5.9900000e+00 0.0000000e+00 
6.6200000e+00 6.0100000e+00 0.0000000e+00 
6.6200000e+00 6.0300000e+00 0.0000000e+00 
6.6466667e+00 5.9700000e+00 0.0000000e+00 
6.6466667e+00 5.9900000e+00 0.0000000e+00 
6.6466667e+00 6.0100000e+00 0.0000000e+00 
6.6466667e+00 6.0300000e+00 0.0000000e+00 
6.6733333e+00 5.9700000e+00 0.0000000e+00 
6.6733333e+00 5.9900000e+00 0.0000000e+00 
6.6733333e+00 6.0100000e+00 0.0000000e+00 
6.6733333e+00 6.0300000e+00 0.0000000e+00 
6.7000000e+00 5.9700000e+00 0.0000000e+00 
6.7000000e+00 5.9900000e+00 0.0000000e+00 
6.7000000e+00 6.0100000e+00 0.0000000e+00 
6.7000000e+00 6.0300000e+00 0.0000000e+00 
6.7266667e+00 5.9700000e+00 0.0000000e+00 
6.7266667e+00 5.9900000e+00 0.0000000e+00 
6.7266667e+00 6.0100000e+00 0.0000000e+00 
6.7266667e+00 6.0300000e+00 0.0000000e+00 
6.7533333e+00 5.9700000e+00 0.0000000e+00 
6.7533333e+00 5.9900000e+00 0.0000000e+00 
6.7533333e+00 6.0100000e+00 0.0000000e+00 
6.7533333e+00 6.0300000e+00 0.0000000e+00 
6.7800000e+00 5.9700000e+00 0.0000000e+00 
6.7800000e+00 5.9900000e+00 0.0000000e+00 
6.7800000e+00 6.0100000e+00 0.0000000e+00 
6.7800000e+00 6.0300000e+00 0.0000000e+00 
6.8066667e+00 5.9700000e+00 0.0000000e+00 
6.8066667e+00 5.9900000e+00 0.0000000e+00 
6.8066667e+00 6.0100000e+00 0.0000000e+00 
6.8066667e+00 6.0300000e+00 0.0000000e+00 
6.8333333e+00 5.9700000e+00 0.0000000e+00 
6.8333333e+00 5.9900000e+00 0.0000000e+00 
6.8333333e+00 6.0100000e+00 0.0000000e+00 
6.8333333e+00 6.0300000e+00 0.0000000e+00 
6.8600000e+00 5.9700000e+00 0.0000000e+00 
6.8600000e+00 5.9900000e+00 0.0000000e+00 
6.8600000e+00 6.0100000e+00 0.0000000e+00 
6.8600000e+00 6.0300000e+00 0.0000000e+00 
6.8866667e+00 5.9700000e+00 0.0000000e+00 
6.8866667e+00 5.9900000e+00 0.0000000e+00 
6.8866667e+00 6.0100000e+00 0.0000000e+00 
6.8866667e+00 6.0300000e+00 0.0000000e+00 
6.9133333e+00 5.9700000e+00 0.0000000e+00 
6.9133333e+00 5.9900000e+00 0.0000000e+00 
6.9133333e+00 6.0100000e+00 0.0000000e+00 
6.9133333e+00 6.0300000e+00 0.0000000e+00 
6.9400000e+00 5.9700000e+00 0.0000000e+00 
6.9400000e+00 5.9900000e+00 0.0000000e+00 
6.9400000e+00 6.0100000e+00 0.0000000e+00 
6.9400000e+00 6.0300000e+00 0.0000000e+00 
6.9666667e+00 5.9700000e+00 0.0000000e+00 
6.9666667e+00 5.9900000e+00 0.0000000e+00 
6.9666667e+00 6.0100000e+00 0.0000000e+00 
6.9666667e+00 6.0300000e+00 0.0000000e+00 
6.9933333e+00 5.9700000e+00 0.0000000e+00 
6.9933333e+00 5.9900000e+00 0.0000000e+00 
6.9933333e+00 6.0100000e+00 0.0000000e+00 
6.9933333e+00 6.0300000e+00 0.0000000e+00 
7.0200000e+00 5.9700000e+00 0.0000000e+00 
7.0200000e+00 5.9900000e+00 0.0000000e+00 
[...]
POINT_DATA 604
FIELD FieldData 2
DISPLACEMENT 3 604  float
0.0000000e+00 0.0000000e+00 0.0000000e+00 
0.0000000e+00 0.0000000e+00 0.0000000e+00 
-1.3145671e-05 -1.0341829e-05 0.0000000e+00 
-3.7749369e-06 -7.8031437e-06 0.0000000e+00 
0.0000000e+00 0.0000000e+00 0.0000000e+00 
3.9337402e-06 -7.8124064e-06 0.0000000e+00 
-2.4052167e-05 -2.9130195e-05 0.0000000e+00 
-7.5773857e-06 -2.7472570e-05 0.0000000e+00 
0.0000000e+00 0.0000000e+00 0.0000000e+00 
1.3306641e-05 -1.0372019e-05 0.0000000e+00 
7.8923009e-06 -2.7487501e-05 0.0000000e+00 
-3.2532895e-05 -5.6894904e-05 0.0000000e+00 
2.4364025e-05 -2.9174820e-05 0.0000000e+00 
-1.0330328e-05 -5.5621542e-05 0.0000000e+00 
1.0786571e-05 -5.5640695e-05 0.0000000e+00 
3.2985518e-05 -5.6954472e-05 0.0000000e+00 
-3.8574021e-05 -9.1104133e-05 0.0000000e+00 
-1.2310563e-05 -9.0264150e-05 0.0000000e+00 
1.2893360e-05 -9.0287743e-05 0.0000000e+00 
3.9154361e-05 -9.1177608e-05 0.0000000e+00 
-4.2217732e-05 -1.2964517e-04 0.0000000e+00 
-1.3491668e-05 -1.2922569e-04 0.0000000e+00 
1.4189510e-05 -1.2925236e-04 0.0000000e+00 
4.2914788e-05 -1.2972818e-04 0.0000000e+00 
-4.3494497e-05 -1.7039323e-04 0.0000000e+00 
-1.3886311e-05 -1.7038689e-04 0.0000000e+00 
1.4692505e-05 -1.7041471e-04 0.0000000e+00 
4.4301410e-05 -1.7047979e-04 0.0000000e+00 
-4.2434812e-05 -2.1125714e-04 0.0000000e+00 
-1.3502518e-05 -2.1165554e-04 0.0000000e+00 
1.4416016e-05 -2.1168229e-04 0.0000000e+00 
4.3350612e-05 -2.1134024e-04 0.0000000e+00 
-3.9069622e-05 -2.5017351e-04 0.0000000e+00 
-1.2348580e-05 -2.5096897e-04 0.0000000e+00 
1.3374110e-05 -2.5099271e-04 0.0000000e+00 
4.0098728e-05 -2.5024736e-04 0.0000000e+00 
-3.3430025e-05 -2.8510973e-04 0.0000000e+00 
-1.0433458e-05 -2.8629438e-04 0.0000000e+00 
1.1580430e-05 -2.8631359e-04 0.0000000e+00 
3.4581739e-05 -2.8516931e-04 0.0000000e+00 
-2.5549172e-05 -3.1406095e-04 0.0000000e+00 
-7.7669595e-06 -3.1562856e-04 0.0000000e+00 
9.0477134e-06 -3.1564273e-04 0.0000000e+00 
2.6835038e-05 -3.1410481e-04 0.0000000e+00 
-1.5460728e-05 -3.3505433e-04 0.0000000e+00 
-4.3606214e-06 -3.3699882e-04 0.0000000e+00 
5.7874691e-06 -3.3700843e-04 0.0000000e+00 
1.6892803e-05 -3.3508338e-04 0.0000000e+00 
-3.2020473e-06 -3.4614470e-04 0.0000000e+00 
-2.2758424e-07 -3.4846249e-04 0.0000000e+00 
1.8094794e-06 -3.4846972e-04 0.0000000e+00 
4.7879812e-06 -3.4616561e-04 0.0000000e+00 
1.1188732e-05 -3.4542017e-04 0.0000000e+00 
4.6165165e-06 -3.4810827e-04 0.0000000e+00 
-2.8784785e-06 -3.4811678e-04 0.0000000e+00 
-9.4485955e-06 -3.4544343e-04 0.0000000e+00 
2.7669501e-05 -3.3099661e-04 0.0000000e+00 
1.0153693e-05 -3.3405519e-04 0.0000000e+00 
-8.2710936e-06 -3.3407092e-04 0.0000000e+00 
-2.5788195e-05 -3.3104026e-04 0.0000000e+00 
4.6196034e-05 -3.0102393e-04 0.0000000e+00 
1.6362845e-05 -3.0445416e-04 0.0000000e+00 
-1.4365784e-05 -3.0448494e-04 0.0000000e+00 
-4.4204761e-05 -3.0111113e-04 0.0000000e+00 
6.6719798e-05 -2.5368074e-04 0.0000000e+00 
2.3219410e-05 -2.5748675e-04 0.0000000e+00 
-2.1163021e-05 -2.5754316e-04 0.0000000e+00 
-6.4674815e-05 -2.5384303e-04 0.0000000e+00 
8.9188082e-05 -1.8717766e-04 0.0000000e+00 
3.0695633e-05 -1.9136682e-04 0.0000000e+00 
-2.8666482e-05 -1.9146228e-04 0.0000000e+00 
-8.7177775e-05 -1.8745549e-04 0.0000000e+00 
1.1354496e-04 -9.9760095e-05 0.0000000e+00 
3.8759578e-05 -1.0434136e-04 0.0000000e+00 
-3.6883441e-05 -1.0449185e-04 0.0000000e+00 
-1.1169651e-04 -1.0020089e-04 0.0000000e+00 
1.3972930e-04 1.0297197e-05 0.0000000e+00 
4.7375413e-05 5.3105488e-06 0.0000000e+00 
-4.5825067e-05 5.0856471e-06 0.0000000e+00 
-1.3821739e-04 9.6350629e-06 0.0000000e+00 
1.6767603e-04 1.4468330e-04 0.0000000e+00 
5.6503097e-05 1.3927601e-04 0.0000000e+00 
-5.5506616e-05 1.3895445e-04 0.0000000e+00 
-1.6673092e-04 1.4373348e-04 0.0000000e+00 
1.9731650e-04 3.0505762e-04 0.0000000e+00 
6.6098042e-05 2.9920986e-04 0.0000000e+00 
-6.5947672e-05 2.9876576e-04 0.0000000e+00 
-1.9723184e-04 3.0374202e-04 0.0000000e+00 
2.2857598e-04 4.9304332e-04 0.0000000e+00 
7.6111019e-05 4.8673317e-04 0.0000000e+00 
-7.7172252e-05 4.8613735e-04 0.0000000e+00 
-2.2971899e-04 4.9127493e-04 0.0000000e+00 
2.6137430e-04 7.1023283e-04 0.0000000e+00 
8.6487828e-05 7.0343357e-04 0.0000000e+00 
-8.9209014e-05 7.0265308e-04 0.0000000e+00 
-2.6419532e-04 7.0791236e-04 0.0000000e+00 
2.9562689e-04 9.5818134e-04 0.0000000e+00 
9.7168953e-05 9.5086396e-04 0.0000000e+00 
-1.0209128e-04 9.4986233e-04 0.0000000e+00 
-3.0066838e-04 9.5519990e-04 0.0000000e+00 
3.3124129e-04 1.2384122e-03 0.0000000e+00 
1.0809002e-04 1.2305427e-03 0.0000000e+00 
-1.1585730e-04 1.2292795e-03 0.0000000e+00 
-3.3914980e-04 1.2346481e-03 0.0000000e+00 
3.6812220e-04 1.5524104e-03 0.0000000e+00 
1.1918118e-04 1.5439523e-03 0.0000000e+00 
-1.3055022e-04 1.5423834e-03 0.0000000e+00 
-3.7965645e-04 1.5477320e-03 0.0000000e+00 
4.0616772e-04 1.9016288e-03 0.0000000e+00 
1.3036763e-04 1.8925404e-03 0.0000000e+00 
-1.4621832e-04 1.8906178e-03 0.0000000e+00 
-4.2220981e-04 1.8958912e-03 0.0000000e+00 
4.4527120e-04 2.2874815e-03 0.0000000e+00 
1.4156916e-04 2.2777186e-03 0.0000000e+00 
-1.6291486e-04 2.2753905e-03 0.0000000e+00 
-4.6683644e-04 2.2805297e-03 0.0000000e+00 
4.8531964e-04 2.7113499e-03 0.0000000e+00 
1.5270029e-04 2.7008633e-03 0.0000000e+00 
-1.8069822e-04 2.6980736e-03 0.0000000e+00 
-5.1356748e-04 2.7030156e-03 0.0000000e+00 
5.2619506e-04 3.1745758e-03 0.0000000e+00 
1.6367014e-04 3.1633133e-03 0.0000000e+00 
-1.9963188e-04 3.1600026e-03 0.0000000e+00 
-5.6243909e-04 3.1646804e-03 0.0000000e+00 
5.6777325e-04 3.6784666e-03 0.0000000e+00 
1.7438213e-04 3.6663721e-03 0.0000000e+00 
-2.1978432e-04 3.6624766e-03 0.0000000e+00 
-6.1349189e-04 3.6668191e-03 0.0000000e+00 
6.0992374e-04 4.2242927e-03 0.0000000e+00 
1.8473478e-04 4.2113054e-03 0.0000000e+00 
-2.4122898e-04 4.2067575e-03 0.0000000e+00 
-6.6677085e-04 4.2106897e-03 0.0000000e+00 
6.5251132e-04 4.8132830e-03 0.0000000e+00 
1.9462096e-04 4.7993400e-03 0.0000000e+00 
-2.6404413e-04 4.7940684e-03 0.0000000e+00 
-7.2232571e-04 4.7975113e-03 0.0000000e+00 
6.9539430e-04 5.4466321e-03 0.0000000e+00 
2.0392854e-04 5.4316651e-03 0.0000000e+00 
-2.8831296e-04 5.4255947e-03 0.0000000e+00 
-7.8021048e-04 5.4284656e-03 0.0000000e+00 
7.3842590e-04 6.1254910e-03 0.0000000e+00 
2.1254048e-04 6.1094299e-03 0.0000000e+00 
-3.1412338e-04 6.1024821e-03 0.0000000e+00 
-8.4048395e-04 6.1046945e-03 0.0000000e+00 
7.8145651e-04 6.8509769e-03 0.0000000e+00 
2.2033462e-04 6.8337461e-03 0.0000000e+00 
-3.4156797e-04 6.8258386e-03 0.0000000e+00 
-9.0320930e-04 6.8273025e-03 0.0000000e+00 
8.2432834e-04 7.6241619e-03 0.0000000e+00 
2.2718412e-04 7.6056848e-03 0.0000000e+00 
-3.7074365e-04 7.5967320e-03 0.0000000e+00 
-9.6845344e-04 7.5973534e-03 0.0000000e+00 
8.6687884e-04 8.4460829e-03 0.0000000e+00 
2.3295700e-04 8.4262774e-03 0.0000000e+00 
-4.0175162e-04 8.4161903e-03 0.0000000e+00 
-1.0362866e-03 8.4158724e-03 0.0000000e+00 
9.0894074e-04 9.3177298e-03 0.0000000e+00 
2.3751635e-04 9.2965132e-03 0.0000000e+00 
-4.3469697e-04 9.2851997e-03 0.0000000e+00 
-1.1067825e-03 9.2838415e-03 0.0000000e+00 
9.5033798e-04 1.0240054e-02 0.0000000e+00 
2.4072121e-04 1.0217339e-02 0.0000000e+00 
-4.6968866e-04 1.0204704e-02 0.0000000e+00 
-1.1800173e-03 1.0202202e-02 0.0000000e+00 
9.9089400e-04 1.1213958e-02 0.0000000e+00 
2.4242623e-04 1.1189657e-02 0.0000000e+00 
-5.0683910e-04 1.1175603e-02 0.0000000e+00 
-1.2560710e-03 1.1171850e-02 0.0000000e+00 
1.0304271e-03 1.2240307e-02 0.0000000e+00 
2.4248267e-04 1.2214326e-02 0.0000000e+00 
-5.4626421e-04 1.2198752e-02 0.0000000e+00 
-1.3350263e-03 1.2193641e-02 0.0000000e+00 
1.0687519e-03 1.3319915e-02 0.0000000e+00 
2.4073823e-04 1.3292162e-02 0.0000000e+00 
-5.8808279e-04 1.3274966e-02 0.0000000e+00 
-1.4169687e-03 1.3268383e-02 0.0000000e+00 
1.1056786e-03 1.4453557e-02 0.0000000e+00 
2.3703736e-04 1.4423934e-02 0.0000000e+00 
-6.3241645e-04 1.4405011e-02 0.0000000e+00 
-1.5019857e-03 1.4396844e-02 0.0000000e+00 
1.1410146e-03 1.5641955e-02 0.0000000e+00 
2.3122183e-04 1.5610366e-02 0.0000000e+00 
-6.7938912e-04 1.5589609e-02 0.0000000e+00 
-1.5901666e-03 1.5579741e-02 0.0000000e+00 
1.1745642e-03 1.6885791e-02 0.0000000e+00 
2.2313031e-04 1.6852136e-02 0.0000000e+00 
-7.2912660e-04 1.6829437e-02 0.0000000e+00 
-1.6816026e-03 1.6817750e-02 0.0000000e+00 
1.2061277e-03 1.8185696e-02 0.0000000e+00 
2.1259956e-04 1.8149875e-02 0.0000000e+00 
-7.8175671e-04 1.8125125e-02 0.0000000e+00 
-1.7763850e-03 1.8111501e-02 0.0000000e+00 
1.2355037e-03 1.9542252e-02 0.0000000e+00 
1.9946447e-04 1.9504164e-02 0.0000000e+00 
-8.3740814e-04 1.9477252e-02 0.0000000e+00 
-1.8746061e-03 1.9461569e-02 0.0000000e+00 
1.2624893e-03 2.0955994e-02 0.0000000e+00 
1.8355840e-04 2.0915537e-02 0.0000000e+00 
-8.9621070e-04 2.0886351e-02 0.0000000e+00 
-1.9763591e-03 2.0868490e-02 0.0000000e+00 
1.2868797e-03 2.2427404e-02 0.0000000e+00 
1.6471407e-04 2.2384476e-02 0.0000000e+00 
-9.5829470e-04 2.2352905e-02 0.0000000e+00 
-2.0817367e-03 2.2332742e-02 0.0000000e+00 
1.3084698e-03 2.3956915e-02 0.0000000e+00 
1.4276356e-04 2.3911414e-02 0.0000000e+00 
-1.0237906e-03 2.3877346e-02 0.0000000e+00 
-2.1908324e-03 2.3854761e-02 0.0000000e+00 
1.3270536e-03 2.5544911e-02 0.0000000e+00 
1.1753944e-04 2.5496735e-02 0.0000000e+00 
-1.0928289e-03 2.5460058e-02 0.0000000e+00 
-2.3037388e-03 2.5434929e-02 0.0000000e+00 
1.3424294e-03 2.7191724e-02 0.0000000e+00 
8.8874281e-05 2.7140772e-02 0.0000000e+00 
-1.1655392e-03 2.7101375e-02 0.0000000e+00 
-2.4205487e-03 2.7073582e-02 0.0000000e+00 
1.3543915e-03 2.8897638e-02 0.0000000e+00 
5.6602262e-05 2.8843808e-02 0.0000000e+00 
-1.2420503e-03 2.8801582e-02 0.0000000e+00 
-2.5413529e-03 2.8771002e-02 0.0000000e+00 
1.3627389e-03 3.0662882e-02 0.0000000e+00 
2.0557872e-05 3.0606077e-02 0.0000000e+00 
-1.3224895e-03 3.0560912e-02 0.0000000e+00 
-2.6662407e-03 3.0527428e-02 0.0000000e+00 
1.3672697e-03 3.2487640e-02 0.0000000e+00 
-1.9422578e-05 3.2427760e-02 0.0000000e+00 
-1.4069820e-03 3.2379549e-02 0.0000000e+00 
-2.7952982e-03 3.2343042e-02 0.0000000e+00 
1.3677802e-03 3.4372035e-02 0.0000000e+00 
-6.3500459e-05 3.4308987e-02 0.0000000e+00 
-1.4956507e-03 3.4257624e-02 0.0000000e+00 
-2.9286103e-03 3.4217980e-02 0.0000000e+00 
1.3640749e-03 3.6316146e-02 0.0000000e+00 
-1.1183463e-04 3.6249834e-02 0.0000000e+00 
-1.5886161e-03 3.6195216e-02 0.0000000e+00 
-3.0662585e-03 3.6152321e-02 0.0000000e+00 
1.3559620e-03 3.8319992e-02 0.0000000e+00 
-1.6458001e-04 3.8250329e-02 0.0000000e+00 
-1.6859956e-03 3.8192355e-02 0.0000000e+00 
-3.2083227e-03 3.8146100e-02 0.0000000e+00 
1.3432532e-03 4.0383554e-02 0.0000000e+00 
-2.2188757e-04 4.0310447e-02 0.0000000e+00 
-1.7879030e-03 4.0249020e-02 0.0000000e+00 
-3.3548791e-03 4.0199295e-02 0.0000000e+00 
1.3257657e-03 4.2506751e-02 0.0000000e+00 
-2.8390316e-04 4.2430117e-02 0.0000000e+00 
-1.8944483e-03 4.2365141e-02 0.0000000e+00 
-3.5060021e-03 4.2311843e-02 0.0000000e+00 
1.3033226e-03 4.4689457e-02 0.0000000e+00 
-3.5076932e-04 4.4609215e-02 0.0000000e+00 
-2.0057382e-03 4.4540601e-02 0.0000000e+00 
-3.6617624e-03 4.4483629e-02 0.0000000e+00 
1.2757518e-03 4.6931507e-02 0.0000000e+00 
-4.2262298e-04 4.6847576e-02 0.0000000e+00 
-2.1218749e-03 4.6775235e-02 0.0000000e+00 
-3.8222270e-03 4.6714492e-02 0.0000000e+00 
1.2428879e-03 4.9232677e-02 0.0000000e+00 
-4.9959547e-04 4.9144984e-02 0.0000000e+00 
-2.2429555e-03 4.9068832e-02 0.0000000e+00 
-3.9874596e-03 4.9004227e-02 0.0000000e+00 
1.2045709e-03 5.1592709e-02 0.0000000e+00 
-5.8181236e-04 5.1501182e-02 0.0000000e+00 
-2.3690727e-03 5.1421139e-02 0.0000000e+00 
-4.1575191e-03 5.1352582e-02 0.0000000e+00 
1.1606516e-03 5.4011293e-02 0.0000000e+00 
-6.6939331e-04 5.3915865e-02 0.0000000e+00 
-2.5003135e-03 5.3831857e-02 0.0000000e+00 
-4.3324605e-03 5.3759265e-02 0.0000000e+00 
1.1109829e-03 5.6488082e-02 0.0000000e+00 
-7.6245126e-04 5.6388690e-02 0.0000000e+00 
-2.6367595e-03 5.6300645e-02 0.0000000e+00 
-4.5123334e-03 5.6223938e-02 0.0000000e+00 
1.0554296e-03 5.9022682e-02 0.0000000e+00 
-8.6109326e-04 5.8919269e-02 0.0000000e+00 
-2.7784865e-03 5.8827121e-02 0.0000000e+00 
-4.6971825e-03 5.8746225e-02 0.0000000e+00 
9.9386031e-04 6.1614664e-02 0.0000000e+00 
-9.6541983e-04 6.1507174e-02 0.0000000e+00 
-2.9255642e-03 6.1410861e-02 0.0000000e+00 
-4.8870460e-03 6.1325707e-02 0.0000000e+00 
9.2614856e-04 6.4263547e-02 0.0000000e+00 
-1.0755240e-03 6.4151934e-02 0.0000000e+00 
-3.0780560e-03 6.4051402e-02 0.0000000e+00 
-5.0819583e-03 6.3961926e-02 0.0000000e+00 
8.5218049e-04 6.6968822e-02 0.0000000e+00 
-1.1914922e-03 6.6853041e-02 0.0000000e+00 
-3.2360190e-03 6.6748237e-02 0.0000000e+00 
-5.2819470e-03 6.6654381e-02 0.0000000e+00 
7.7185117e-04 6.9729931e-02 0.0000000e+00 
-1.3134023e-03 6.9609945e-02 0.0000000e+00 
-3.3995036e-03 6.9500826e-02 0.0000000e+00 
-5.4870349e-03 6.9402537e-02 0.0000000e+00 
6.8506326e-04 7.2546292e-02 0.0000000e+00 
-1.4413246e-03 7.2422066e-02 0.0000000e+00 
-3.5685535e-03 7.2308590e-02 0.0000000e+00 
-5.6972392e-03 7.2205821e-02 0.0000000e+00 
5.9172997e-04 7.5417275e-02 0.0000000e+00 
-1.5753213e-03 7.5288784e-02 0.0000000e+00 
-3.7432058e-03 7.5170917e-02 0.0000000e+00 
-5.9125716e-03 7.5063628e-02 0.0000000e+00 
4.9177218e-04 7.8342231e-02 0.0000000e+00 
-1.7154471e-03 7.8209450e-02 0.0000000e+00 
-3.9234906e-03 7.8087162e-02 0.0000000e+00 
-6.1330376e-03 7.7975318e-02 0.0000000e+00 
3.8512037e-04 8.1320467e-02 0.0000000e+00 
-1.8617471e-03 8.1183378e-02 0.0000000e+00 
-4.1094310e-03 8.1056647e-02 0.0000000e+00 
-6.3586378e-03 8.0940218e-02 0.0000000e+00 
2.7171641e-04 8.4351264e-02 0.0000000e+00 
-2.0142600e-03 8.4209857e-02 0.0000000e+00 
-4.3010437e-03 8.4078665e-02 0.0000000e+00 
-6.5893676e-03 8.3957628e-02 0.0000000e+00 
1.5150970e-04 8.7433882e-02 0.0000000e+00 
-2.1730159e-03 8.7288147e-02 0.0000000e+00 
-4.4983389e-03 8.7152482e-02 0.0000000e+00 
-6.8252171e-03 8.7026819e-02 0.0000000e+00 
2.4459755e-05 9.0567545e-02 0.0000000e+00 
-2.3380366e-03 9.0417483e-02 0.0000000e+00 
-4.7013196e-03 9.0277337e-02 0.0000000e+00 
-7.0661708e-03 9.0147038e-02 0.0000000e+00 
-1.0946582e-04 9.3751464e-02 0.0000000e+00 
-2.5093365e-03 9.3597075e-02 0.0000000e+00 
-4.9099825e-03 9.3452448e-02 0.0000000e+00 
-7.3122073e-03 9.3317506e-02 0.0000000e+00 
-2.5028967e-04 9.6984816e-02 0.0000000e+00 
-2.6869217e-03 9.6826112e-02 0.0000000e+00 
-5.1243170e-03 9.6677007e-02 0.0000000e+00 
-7.5632999e-03 9.6537422e-02 0.0000000e+00 
-3.9802672e-04 1.0026677e-01 0.0000000e+00 
-2.8707911e-03 1.0010376e-01 0.0000000e+00 
-5.3443065e-03 9.9950186e-02 0.0000000e+00 
-7.8194163e-03 9.9805964e-02 0.0000000e+00 
-5.5268076e-04 1.0359646e-01 0.0000000e+00 
-3.0609352e-03 1.0342916e-01 0.0000000e+00 
-5.5699273e-03 1.0327114e-01 0.0000000e+00 
-8.0805182e-03 1.0312229e-01 0.0000000e+00 
-7.1425010e-04 1.0697301e-01 0.0000000e+00 
-3.2573376e-03 1.0680145e-01 0.0000000e+00 
-5.8011493e-03 1.0663899e-01 0.0000000e+00 
-8.3465627e-03 1.0648553e-01 0.0000000e+00 
-8.8272141e-04 1.1039553e-01 0.0000000e+00 
-3.4599743e-03 1.1021974e-01 0.0000000e+00 
-6.0379362e-03 1.1005287e-01 0.0000000e+00 
-8.6175004e-03 1.0989482e-01 0.0000000e+00 
-1.0580759e-03 1.1386311e-01 0.0000000e+00 
-3.6688145e-03 1.1368312e-01 0.0000000e+00 
-6.2802455e-03 1.1351187e-01 0.0000000e+00 
-8.8932770e-03 1.1334926e-01 0.0000000e+00 
-1.2402879e-03 1.1737482e-01 0.0000000e+00 
-3.8838200e-03 1.1719066e-01 0.0000000e+00 
-6.5280283e-03 1.1701507e-01 0.0000000e+00 
-9.1738337e-03 1.1684794e-01 0.0000000e+00 
-1.4293219e-03 1.2092972e-01 0.0000000e+00 
-4.1049463e-03 1.2074145e-01 0.0000000e+00 
-6.7812302e-03 1.2056155e-01 0.0000000e+00 
-9.4591061e-03 1.2038993e-01 0.0000000e+00 
-1.6251341e-03 1.2452687e-01 0.0000000e+00 
-4.3321414e-03 1.2433453e-01 0.0000000e+00 
-7.0397909e-03 1.2415037e-01 0.0000000e+00 
-9.7490252e-03 1.2397429e-01 0.0000000e+00 
-1.8276742e-03 1.2816531e-01 0.0000000e+00 
-4.5653472e-03 1.2796894e-01 0.0000000e+00 
-7.3036444e-03 1.2778057e-01 0.0000000e+00 
-1.0043518e-02 1.2760009e-01 0.0000000e+00 
-2.0368836e-03 1.3184406e-01 0.0000000e+00 
-4.8044982e-03 1.3164372e-01 0.0000000e+00 
-7.5727195e-03 1.3145119e-01 0.0000000e+00 
-1.0342506e-02 1.3126636e-01 0.0000000e+00 
-2.2526960e-03 1.3556215e-01 0.0000000e+00 
-5.0495237e-03 1.3535789e-01 0.0000000e+00 
-7.8469400e-03 1.3516127e-01 0.0000000e+00 
-1.0645908e-02 1.3497214e-01 0.0000000e+00 
-2.4750387e-03 1.3931859e-01 0.0000000e+00 
-5.3003471e-03 1.3911049e-01 0.0000000e+00 
-8.1262255e-03 1.3890982e-01 0.0000000e+00 
-1.0953642e-02 1.3871646e-01 0.0000000e+00 
-2.7038324e-03 1.4311240e-01 0.0000000e+00 
-5.5568859e-03 1.4290051e-01 0.0000000e+00 
-8.4104908e-03 1.4269586e-01 0.0000000e+00 
-1.1265617e-02 1.4249833e-01 0.0000000e+00 
-2.9389922e-03 1.4694259e-01 0.0000000e+00 
-5.8190532e-03 1.4672698e-01 0.0000000e+00 
-8.6996464e-03 1.4651843e-01 0.0000000e+00 
-1.1581744e-02 1.4631679e-01 0.0000000e+00 
-3.1804267e-03 1.5080816e-01 0.0000000e+00 
-6.0867565e-03 1.5058891e-01 0.0000000e+00 
-8.9935989e-03 1.5037652e-01 0.0000000e+00 
-1.1901927e-02 1.5017085e-01 0.0000000e+00 
-3.4280404e-03 1.5470814e-01 0.0000000e+00 
-6.3598992e-03 1.5448531e-01 0.0000000e+00 
-9.2922510e-03 1.5426916e-01 0.0000000e+00 
-1.2226069e-02 1.5405953e-01 0.0000000e+00 
-3.6817313e-03 1.5864151e-01 0.0000000e+00 
-6.6383801e-03 1.5841520e-01 0.0000000e+00 
-9.5955017e-03 1.5819535e-01 0.0000000e+00 
-1.2554069e-02 1.5798184e-01 0.0000000e+00 
-3.9413938e-03 1.6260730e-01 0.0000000e+00 
-6.9220942e-03 1.6237757e-01 0.0000000e+00 
-9.9032467e-03 1.6215412e-01 0.0000000e+00 
-1.2885822e-02 1.6193681e-01 0.0000000e+00 
-4.2069182e-03 1.6660451e-01 0.0000000e+00 
-7.2109327e-03 1.6637145e-01 0.0000000e+00 
-1.0215378e-02 1.6614447e-01 0.0000000e+00 
-1.3221224e-02 1.6592344e-01 0.0000000e+00 
-4.4781900e-03 1.7063216e-01 0.0000000e+00 
-7.5047832e-03 1.7039585e-01 0.0000000e+00 
-1.0531787e-02 1.7016543e-01 0.0000000e+00 
-1.3560166e-02 1.6994077e-01 0.0000000e+00 
-4.7550907e-03 1.7468925e-01 0.0000000e+00 
-7.8035299e-03 1.7444978e-01 0.0000000e+00 
-1.0852359e-02 1.7421601e-01 0.0000000e+00 
-1.3902538e-02 1.7398781e-01 0.0000000e+00 
-5.0374981e-03 1.7877483e-01 0.0000000e+00 
-8.1070542e-03 1.7853228e-01 0.0000000e+00 
-1.1176979e-02 1.7829525e-01 0.0000000e+00 
-1.4248228e-02 1.7806358e-01 0.0000000e+00 
-5.3252867e-03 1.8288790e-01 0.0000000e+00 
-8.4152343e-03 1.8264237e-01 0.0000000e+00 
-1.1505530e-02 1.8240216e-01 0.0000000e+00 
-1.4597122e-02 1.8216713e-01 0.0000000e+00 
-5.6183277e-03 1.8702751e-01 0.0000000e+00 
-8.7279462e-03 1.8677908e-01 0.0000000e+00 
-1.1837891e-02 1.8653579e-01 0.0000000e+00 
-1.4949106e-02 1.8629749e-01 0.0000000e+00 
-5.9164895e-03 1.9119268e-01 0.0000000e+00 
-9.0450633e-03 1.9094146e-01 0.0000000e+00 
-1.2173943e-02 1.9069517e-01 0.0000000e+00 
-1.5304064e-02 1.9045370e-01 0.0000000e+00 
-6.2196376e-03 1.9538248e-01 0.0000000e+00 
-9.3664571e-03 1.9512854e-01 0.0000000e+00 
-1.2513562e-02 1.9487937e-01 0.0000000e+00 
-1.5661879e-02 1.9463481e-01 0.0000000e+00 
-6.5276350e-03 1.9959595e-01 0.0000000e+00 
-9.6919976e-03 1.9933940e-01 0.0000000e+00 
-1.2856625e-02 1.9908742e-01 0.0000000e+00 
-1.6022435e-02 1.9883988e-01 0.0000000e+00 
-6.8403430e-03 2.0383216e-01 0.0000000e+00 
-1.0021553e-02 2.0357308e-01 0.0000000e+00 
-1.3203008e-02 2.0331841e-01 0.0000000e+00 
-1.6385615e-02 2.0306798e-01 0.0000000e+00 
-7.1576211e-03 2.0809019e-01 0.0000000e+00 
-1.0354992e-02 2.0782869e-01 0.0000000e+00 
-1.3552587e-02 2.0757140e-01 0.0000000e+00 
-1.6751302e-02 2.0731819e-01 0.0000000e+00 
-7.4793277e-03 2.1236912e-01 0.0000000e+00 
-1.0692179e-02 2.1210528e-01 0.0000000e+00 
-1.3905235e-02 2.1184549e-01 0.0000000e+00 
-1.7119380e-02 2.1158959e-01 0.0000000e+00 
-7.8053200e-03 2.1666806e-01 0.0000000e+00 
-1.1032981e-02 2.1640198e-01 0.0000000e+00 
-1.4260828e-02 2.1613977e-01 0.0000000e+00 
-1.7489732e-02 2.1588129e-01 0.0000000e+00 
-8.1354545e-03 2.2098611e-01 0.0000000e+00 
-1.1377264e-02 2.2071789e-01 0.0000000e+00 