# vtk DataFile Version 4.0
vtk output
ASCII
DATASET UNSTRUCTURED_GRID
POINTS 604 float
5.5000000e+00 5.9700000e+00 0.0000000e+00 
5.5000000e+00 5.9900000e+00 0.0000000e+00 
5.5266667e+00 5.9700000e+00 0.0000000e+00 
5.5266667e+00 5.9900000e+00 0.0000000e+00 
5.5000000e+00 6.0100000e+00 0.0000000e+00 
5.5266667e+00 6.0100000e+00 0.0000000e+00 
5.5533333e+00 5.9700000e+00 0.0000000e+00 
5.5533333e+00 5.9900000e+00 0.0000000e+00 
5.5000000e+00 6.0300000e+00 0.0000000e+00 
5.5266667e+00 6.0300000e+00 0.0000000e+00 
5.5533333e+00 6.0100000e+00 0.0000000e+00 
5.5800000e+00 5.9700000e+00 0.0000000e+00 
5.5533333e+00 6.0300000e+00 0.0000000e+00 
5.5800000e+00 5.9900000e+00 0.0000000e+00 
5.5800000e+00 6.0100000e+00 0.0000000e+00 
5.5800000e+00 6.0300000e+00 0.0000000e+00 
5.6066667e+00 5.9700000e+00 0.0000000e+00 
5.6066667e+00 5.9900000e+00 0.0000000e+00 
5.6066667e+00 6.0100000e+00 0.0000000e+00 
5.6066667e+00 6.0300000e+00 0.0000000e+00 
5.6333333e+00 5.9700000e+00 0.0000000e+00 
5.6333333e+00 5.9900000e+00 0.0000000e+00 
5.6333333e+00 6.0100000e+00 0.0000000e+00 
5.6333333e+00 6.0300000e+00 0.0000000e+00 
5.6600000e+00 5.9700000e+00 0.0000000e+00 
5.6600000e+00 5.9900000e+00 0.0000000e+00 
5.6600000e+00 6.0100000e+00 0.0000000e+00 
5.6600000e+00 6.0300000e+00 0.0000000e+00 
5.6866667e+00 5.9700000e+00 0.0000000e+00 
5.6866667e+00 5.9900000e+00 0.0000000e+00 
5.6866667e+00 6.0100000e+00 0.0000000e+00 
5.6866667e+00 6.0300000e+00 0.0000000e+00 
5.7133333e+00 5.9700000e+00 0.0000000e+00 
5.7133333e+00 5.9900000e+00 0.0000000e+00 
5.7133333e+00 6.0100000e+00 0.0000000e+00 
5.7133333e+00 6.0300000e+00 0.0000000e+00 
5.7400000e+00 5.9700000e+00 0.0000000e+00 
5.7400000e+00 5.9900000e+00 0.0000000e+00 
5.7400000e+00 6.0100000e+00 0.0000000e+00 
5.7400000e+00 6.0300000e+00 0.0000000e+00 
5.7666667e+00 5.9700000e+00 0.0000000e+00 
5.7666667e+00 5.9900000e+00 0.0000000e+00 
5.7666667e+00 6.0100000e+00 0.0000000e+00 
5.7666667e+00 6.0300000e+00 0.0000000e+00 
5.7933333e+00 5.9700000e+00 0.0000000e+00 
5.7933333e+00 5.9900000e+00 0.0000000e+00 
5.7933333e+00 6.0100000e+00 0.0000000e+00 
5.7933333e+00 6.0300000e+00 0.0000000e+00 
5.8200000e+00 5.9700000e+00 0.0000000e+00 
5.8200000e+00 5.9900000e+00 0.0000000e+00 
5.8200000e+00 6.0100000e+00 0.0000000e+00 
5.8200000e+00 6.0300000e+00 0.0000000e+00 
5.8466667e+00 5.9700000e+00 0.0000000e+00 
5.8466667e+00 5.9900000e+00 0.0000000e+00 
5.8466667e+00 6.0100000e+00 0.0000000e+00 
5.8466667e+00 6.0300000e+00 0.0000000e+00 
5.8733333e+00 5.9700000e+00 0.0000000e+00 
5.8733333e+00 5.9900000e+00 0.0000000e+00 
5.8733333e+00 6.0100000e+00 0.0000000e+00 
5.8733333e+00 6.0300000e+00 0.0000000e+00 
5.9000000e+00 5.9700000e+00 0.0000000e+00 
5.9000000e+00 5.9900000e+00 0.0000000e+00 
5.9000000e+00 6.0100000e+00 0.0000000e+00 
5.9000000e+00 6.0300000e+00 0.0000000e+00 
5.9266667e+00 5.9700000e+00 0.0000000e+00 
5.9266667e+00 5.9900000e+00 0.0000000e+00 
5.9266667e+00 6.0100000e+00 0.0000000e+00 
5.9266667e+00 6.0300000e+00 0.0000000e+00 
5.9533333e+00 5.9700000e+00 0.0000000e+00 
5.9533333e+00 5.9900000e+00 0.0000000e+00 
5.9533333e+00 6.0100000e+00 0.0000000e+00 
5.9533333e+00 6.0300000e+00 0.0000000e+00 
5.9800000e+00 5.9700000e+00 0.0000000e+00 
5.9800000e+00 5.9900000e+00 0.0000000e+00 
5.9800000e+00 6.0100000e+00 0.0000000e+00 
5.9800000e+00 6.0300000e+00 0.0000000e+00 
6.0066667e+00 5.9700000e+00 0.0000000e+00 
6.0066667e+00 5.9900000e+00 0.0000000e+00 
6.0066667e+00 6.0100000e+00 0.0000000e+00 
6.0066667e+00 6.0300000e+00 0.0000000e+00 
6.0333333e+00 5.9700000e+00 0.0000000e+00 
6.0333333e+00 5.9900000e+00 0.0000000e+00 
6.0333333e+00 6.0100000e+00 0.0000000e+00 
6.0333333e+00 6.0300000e+00 0.0000000e+00 
6.0600000e+00 5.9700000e+00 0.0000000e+00 
6.0600000e+00 5.9900000e+00 0.0000000e+00 
6.0600000e+00 6.0100000e+00 0.0000000e+00 
6.0600000e+00 6.0300000e+00 0.0000000e+00 
6.0866667e+00 5.9700000e+00 0.0000000e+00 
6.0866667e+00 5.9900000e+00 0.0000000e+00 
6.0866667e+00 6.0100000e+00 0.0000000e+00 
6.0866667e+00 6.0300000e+00 0.0000000e+00 
6.1133333e+00 5.9700000e+00 0.0000000e+00 
6.1133333e+00 5.9900000e+00 0.0000000e+00 
6.1133333e+00 6.0100000e+00 0.0000000e+00 
6.1133333e+00 6.0300000e+00 0.0000000e+00 
6.1400000e+00 5.9700000e+00 0.0000000e+00 
6.1400000e+00 5.9900000e+00 0.0000000e+00 
6.1400000e+00 6.0100000e+00 0.0000000e+00 
6.1400000e+00 6.0300000e+00 0.0000000e+00 
6.1666667e+00 5.9700000e+00 0.0000000e+00 
6.1666667e+00 5.9900000e+00 0.0000000e+00 
6.1666667e+00 6.0100000e+00 0.0000000e+00 
6.1666667e+00 6.0300000e+00 0.0000000e+00 
6.1933333e+00 5.9700000e+00 0.0000000e+00 
6.1933333e+00 5.9900000e+00 0.0000000e+00 
6.1933333e+00 6.0100000e+00 0.0000000e+00 
6.1933333e+00 6.0300000e+00 0.0000000e+00 
6.2200000e+00 5.9700000e+00 0.0000000e+00 
6.2200000e+00 5.9900000e+00 0.0000000e+00 
6.2200000e+00 6.0100000e+00 0.0000000e+00 
6.2200000e+00 6.0300000e+00 0.0000000e+00 
6.2466667e+00 5.9700000e+00 0.0000000e+00 
6.2466667e+00 5.9900000e+00 0.0000000e+00 
6.2466667e+00 6.0100000e+00 0.0000000e+00 
6.2466667e+00 6.0300000e+00 0.0000000e+00 
6.2733333e+00 5.9700000e+00 0.0000000e+00 
6.2733333e+00 5.9900000e+00 0.0000000e+00 
6.2733333e+00 6.0100000e+00 0.0000000e+00 
6.2733333e+00 6.0300000e+00 0.0000000e+00 
6.3000000e+00 5.9700000e+00 0.0000000e+00 
6.3000000e+00 5.9900000e+00 0.0000000e+00 
6.3000000e+00 6.0100000e+00 0.0000000e+00 
6.3000000e+00 6.0300000e+00 0.0000000e+00 
6.3266667e+00 5.9700000e+00 0.0000000e+00 
6.3266667e+00 5.9900000e+00 0.0000000e+00 
6.3266667e+00 6.0100000e+00 0.0000000e+00 
6.3266667e+00 6.0300000e+00 0.0000000e+00 
6.3533333e+00 5.9700000e+00 0.0000000e+00 
6.3533333e+00 5.9900000e+00 0.0000000e+00 
6.3533333e+00 6.0100000e+00 0.0000000e+00 
6.3533333e+00 6.0300000e+00 0.0000000e+00 
6.3800000e+00 5.9700000e+00 0.0000000e+00 
6.3800000e+00 5.9900000e+00 0.0000000e+00 
6.3800000e+00 6.0100000e+00 0.0000000e+00 
6.3800000e+00 6.0300000e+00 0.0000000e+00 
6.4066667e+00 5.9700000e+00 0.0000000e+00 
6.4066667e+00 5.9900000e+00 0.0000000e+00 
6.4066667e+00 6.0100000e+00 0.0000000e+00 
6.4066667e+00 6.0300000e+00 0.0000000e+00 
6.4333333e+00 5.9700000e+00 0.0000000e+00 
6.4333333e+00 5.9900000e+00 0.0000000e+00 
6.4333333e+00 6.0100000e+00 0.0000000e+00 
6.4333333e+00 6.0300000e+00 0.0000000e+00 
6.4600000e+00 5.9700000e+00 0.0000000e+00 
6.4600000e+00 5.9900000e+00 0.0000000e+00 
6.4600000e+00 6.0100000e+00 0.0000000e+00 
6.4600000e+00 6.0300000e+00 0.0000000e+00 
6.4866667e+00 5.9700000e+00 0.0000000e+00 
6.4866667e+00 5.9900000e+00 0.0000000e+00 
6.4866667e+00 6.0100000e+00 0.0000000e+00 
6.4866667e+00 6.0300000e+00 0.0000000e+00 
6.5133333e+00 5.9700000e+00 0.0000000e+00 
6.5133333e+00 5.9900000e+00 0.0000000e+00 
6.5133333e+00 6.0100000e+00 0.0000000e+00 
6.5133333e+00 6.0300000e+00 0.0000000e+00 
6.5400000e+00 5.9700000e+00 0.0000000e+00 
6.5400000e+00 5.9900000e+00 0.0000000e+00 
6.5400000e+00 6.0100000e+00 0.0000000e+00 
6.5400000e+00 6.0300000e+00 0.0000000e+00 
6.5666667e+00 5.9700000e+00 0.0000000e+00 
6.5666667e+00 5.9900000e+00 0.0000000e+00 
6.5666667e+00 6.0100000e+00 0.0000000e+00 
6.5666667e+00 6.0300000e+00 0.0000000e+00 
6.5933333e+00 5.9700000e+00 0.0000000e+00 
6.5933333e+00 5.9900000e+00 0.0000000e+00 
6.5933333e+00 6.0100000e+00 0.0000000e+00 
6.5933333e+00 6.0300000e+00 0.0000000e+00 
6.6200000e+00 5.9700000e+00 0.0000000e+00 
6.6200000e+00 5.9900000e+00 0.0000000e+00 
6.6200000e+00 6.0100000e+00 0.0000000e+00 
6.6200000e+00 6.0300000e+00 0.0000000e+00 
6.6466667e+00 5.9700000e+00 0.0000000e+00 
6.6466667e+00 5.9900000e+00 0.0000000e+00 
6.6466667e+00 6.0100000e+00 0.0000000e+00 
6.6466667e+00 6.0300000e+00 0.0000000e+00 
6.6733333e+00 5.9700000e+00 0.0000000e+00 
6.6733333e+00 5.9900000e+00 0.0000000e+00 
6.6733333e+00 6.0100000e+00 0.0000000e+00 
6.6733333e+00 6.0300000e+00 0.0000000e+00 
6.7000000e+00 5.9700000e+00 0.0000000e+00 
6.7000000e+00 5.9900000e+00 0.0000000e+00 
6.7000000e+00 6.0100000e+00 0.0000000e+00 
6.7000000e+00 6.0300000e+00 0.0000000e+00 
6.7266667e+00 5.9700000e+00 0.0000000e+00 
6.7266667e+00 5.9900000e+00 0.0000000e+00 
6.7266667e+00 6.0100000e+00 0.0000000e+00 
6.7266667e+00 6.0300000e+00 0.0000000e+00 
6.7533333e+00 5.9700000e+00 0.0000000e+00 
6.7533333e+00 5.9900000e+00 0.0000000e+00 
6.7533333e+00 6.0100000e+00 0.0000000e+00 
6.7533333e+00 6.0300000e+00 0.0000000e+00 
6.7800000e+00 5.9700000e+00 0.0000000e+00 
6.7800000e+00 5.9900000e+00 0.0000000e+00 
6.7800000e+00 6.0100000e+00 0.0000000e+00 
6.7800000e+00 6.0300000e+00 0.0000000e+00 
6.8066667e+00 5.9700000e+00 0.0000000e+00 
6.8066667e+00 5.9900000e+00 0.0000000e+00 
6.8066667e+00 6.0100000e+00 0.0000000e+00 
6.8066667e+00 6.0300000e+00 0.0000000e+00 
6.8333333e+00 5.9700000e+00 0.0000000e+00 
6.8333333e+00 5.9900000e+00 0.0000000e+00 
6.8333333e+00 6.0100000e+00 0.0000000e+00 
6.8333333e+00 6.0300000e+00 0.0000000e+00 
6.8600000e+00 5.9700000e+00 0.0000000e+00 
6.8600000e+00 5.9900000e+00 0.0000000e+00 
6.8600000e+00 6.0100000e+00 0.0000000e+00 
6.8600000e+00 6.0300000e+00 0.0000000e+00 
6.8866667e+00 5.9700000e+00 0.0000000e+00 
6.8866667e+00 5.9900000e+00 0.0000000e+00 
6.8866667e+00 6.0100000e+00 0.0000000e+00 
6.8866667e+00 6.0300000e+00 0.0000000e+00 
6.9133333e+00 5.9700000e+00 0.0000000e+00 
6.9133333e+00 5.9900000e+00 0.0000000e+00 
6.9133333e+00 6.0100000e+00 0.0000000e+00 
6.9133333e+00 6.0300000e+00 0.0000000e+00 
6.9400000e+00 5.9700000e+00 0.0000000e+00 
6.9400000e+00 5.9900000e+00 0.0000000e+00 
6.9400000e+00 6.0100000e+00 0.0000000e+00 
6.9400000e+00 6.0300000e+00 0.0000000e+00 
6.9666667e+00 5.9700000e+00 0.0000000e+00 
6.9666667e+00 5.9900000e+00 0.0000000e+00 
6.9666667e+00 6.0100000e+00 0.0000000e+00 
6.9666667e+00 6.0300000e+00 0.0000000e+00 
6.9933333e+00 5.9700000e+00 0.0000000e+00 
6.9933333e+00 5.9900000e+00 0.0000000e+00 
6.9933333e+00 6.0100000e+00 0.0000000e+00 
6.9933333e+00 6.0300000e+00 0.0000000e+00 
7.0200000e+00 5.9700000e+00 0.0000000e+00 
7.0200000e+00 5.9900000e+00 0.0000000e+00 
[...]
POINT_DATA 604
FIELD FieldData 2
DISPLACEMENT 3 604  float
0.0000000e+00 0.0000000e+00 0.0000000e+00 
0.0000000e+00 0.0000000e+00 0.0000000e+00 
-1.1326122e-04 -6.8101272e-05 0.0000000e+00 
-3.5955882e-05 -4.4581974e-05 0.0000000e+00 
0.0000000e+00 0.0000000e+00 0.0000000e+00 
3.5930046e-05 -4.4841063e-05 0.0000000e+00 
-2.2855753e-04 -2.1856699e-04 0.0000000e+00 
-7.6326345e-05 -1.9972275e-04 0.0000000e+00 
0.0000000e+00 0.0000000e+00 0.0000000e+00 
1.1316250e-04 -6.8842786e-05 0.0000000e+00 
7.5585315e-05 -2.0046066e-04 0.0000000e+00 
-3.4277990e-04 -4.7279413e-04 0.0000000e+00 
2.2752704e-04 -2.2068702e-04 0.0000000e+00 
-1.1484443e-04 -4.5456586e-04 0.0000000e+00 
1.1185709e-04 -4.5599935e-04 0.0000000e+00 
3.3932801e-04 -4.7703015e-04 0.0000000e+00 
-4.5596964e-04 -8.2576976e-04 0.0000000e+00 
-1.5409487e-04 -8.0892662e-04 0.0000000e+00 
1.4658564e-04 -8.1133005e-04 0.0000000e+00 
4.4786627e-04 -8.3292912e-04 0.0000000e+00 
-5.6857391e-04 -1.2760291e-03 0.0000000e+00 
-1.9409384e-04 -1.2607657e-03 0.0000000e+00 
1.7912541e-04 -1.2643894e-03 0.0000000e+00 
5.5288712e-04 -1.2868571e-03 0.0000000e+00 
-6.8091290e-04 -1.8217350e-03 0.0000000e+00 
-2.3520169e-04 -1.8082871e-03 0.0000000e+00 
2.0919622e-04 -1.8133635e-03 0.0000000e+00 
6.5407102e-04 -1.8369304e-03 0.0000000e+00 
-7.9330019e-04 -2.4610955e-03 0.0000000e+00 
-2.7771984e-04 -2.4496787e-03 0.0000000e+00 
2.3649752e-04 -2.4564264e-03 0.0000000e+00 
7.5113085e-04 -2.4813134e-03 0.0000000e+00 
-9.0602993e-04 -3.1923247e-03 0.0000000e+00 
-3.2193461e-04 -3.1831415e-03 0.0000000e+00 
2.6075172e-04 -3.1917651e-03 0.0000000e+00 
8.4379659e-04 -3.2181787e-03 0.0000000e+00 
-1.0193781e-03 -4.0136479e-03 0.0000000e+00 
-3.6811369e-04 -4.0068870e-03 0.0000000e+00 
2.8169930e-04 -4.0175775e-03 0.0000000e+00 
9.3181693e-04 -4.0457109e-03 0.0000000e+00 
-1.1336031e-03 -4.9233002e-03 0.0000000e+00 
-4.1650703e-04 -4.9191373e-03 0.0000000e+00 
2.9909863e-04 -4.9320726e-03 0.0000000e+00 
1.0149584e-03 -4.9621058e-03 0.0000000e+00 
-1.2489461e-03 -5.9195282e-03 0.0000000e+00 
-4.6734738e-04 -5.9181258e-03 0.0000000e+00 
3.1272542e-04 -5.9334711e-03 0.0000000e+00 
1.0930051e-03 -5.9655711e-03 0.0000000e+00 
-1.3656320e-03 -7.0005882e-03 0.0000000e+00 
-5.2085069e-04 -7.0020969e-03 0.0000000e+00 
3.2237225e-04 -7.0200048e-03 0.0000000e+00 
1.1657579e-03 -7.0543266e-03 0.0000000e+00 
-1.4838690e-03 -8.1647485e-03 0.0000000e+00 
-5.7721675e-04 -8.1693062e-03 0.0000000e+00 
3.2784801e-04 -8.1899174e-03 0.0000000e+00 
1.2330344e-03 -8.2266037e-03 0.0000000e+00 
-1.6038502e-03 -9.4102872e-03 0.0000000e+00 
-6.3662950e-04 -9.4180208e-03 0.0000000e+00 
3.2897749e-04 -9.4414642e-03 0.0000000e+00 
1.2946680e-03 -9.4806464e-03 0.0000000e+00 
-1.7257532e-03 -1.0735495e-02 0.0000000e+00 
-6.9925771e-04 -1.0746519e-02 0.0000000e+00 
3.2560082e-04 -1.0772913e-02 0.0000000e+00 
1.3505077e-03 -1.0814711e-02 0.0000000e+00 
-1.8497410e-03 -1.2138673e-02 0.0000000e+00 
-7.6525541e-04 -1.2153092e-02 0.0000000e+00 
3.1757303e-04 -1.2182542e-02 0.0000000e+00 
1.4004173e-03 -1.2227065e-02 0.0000000e+00 
-1.9759627e-03 -1.3618133e-02 0.0000000e+00 
-8.3476219e-04 -1.3636042e-02 0.0000000e+00 
3.0476362e-04 -1.3668645e-02 0.0000000e+00 
1.4442755e-03 -1.3715990e-02 0.0000000e+00 
-2.1045533e-03 -1.5172202e-02 0.0000000e+00 
-9.0790394e-04 -1.5193682e-02 0.0000000e+00 
2.8705601e-04 -1.5229524e-02 0.0000000e+00 
1.4819748e-03 -1.5279781e-02 0.0000000e+00 
-2.2356350e-03 -1.6799214e-02 0.0000000e+00 
-9.8479310e-04 -1.6824340e-02 0.0000000e+00 
2.6434711e-04 -1.6863497e-02 0.0000000e+00 
1.5134214e-03 -1.6916743e-02 0.0000000e+00 
-2.3693168e-03 -1.8497520e-02 0.0000000e+00 
-1.0655292e-03 -1.8526355e-02 0.0000000e+00 
2.3654687e-04 -1.8568893e-02 0.0000000e+00 
1.5385347e-03 -1.8625198e-02 0.0000000e+00 
-2.5056953e-03 -2.0265479e-02 0.0000000e+00 
-1.1501994e-03 -2.0298078e-02 0.0000000e+00 
2.0357777e-04 -2.0344054e-02 0.0000000e+00 
1.5572466e-03 -2.0403478e-02 0.0000000e+00 
-2.6448553e-03 -2.2101466e-02 0.0000000e+00 
-1.2388786e-03 -2.2137874e-02 0.0000000e+00 
1.6537449e-04 -2.2187337e-02 0.0000000e+00 
1.5695015e-03 -2.2249929e-02 0.0000000e+00 
-2.7868703e-03 -2.4003864e-02 0.0000000e+00 
-1.3316303e-03 -2.4044120e-02 0.0000000e+00 
1.2188336e-04 -2.4097109e-02 0.0000000e+00 
1.5752553e-03 -2.4162912e-02 0.0000000e+00 
-2.9318025e-03 -2.5971074e-02 0.0000000e+00 
-1.4285070e-03 -2.6015205e-02 0.0000000e+00 
7.3061929e-05 -2.6071752e-02 0.0000000e+00 
1.5744756e-03 -2.6140801e-02 0.0000000e+00 
-3.0797043e-03 -2.8001506e-02 0.0000000e+00 
-1.5295504e-03 -2.8049533e-02 0.0000000e+00 
1.8878606e-05 -2.8109662e-02 0.0000000e+00 
1.5671406e-03 -2.8181982e-02 0.0000000e+00 
-3.2306170e-03 -3.0093585e-02 0.0000000e+00 
-1.6347918e-03 -3.0145521e-02 0.0000000e+00 
-4.0687818e-05 -3.0209248e-02 0.0000000e+00 
1.5532394e-03 -3.0284858e-02 0.0000000e+00 
-3.3845727e-03 -3.2245747e-02 0.0000000e+00 
-1.7442527e-03 -3.2301599e-02 0.0000000e+00 
-1.0564858e-04 -3.2368932e-02 0.0000000e+00 
1.5327709e-03 -3.2447844e-02 0.0000000e+00 
-3.5415936e-03 -3.4456445e-02 0.0000000e+00 
-1.8579453e-03 -3.4516211e-02 0.0000000e+00 
-1.7600532e-04 -3.4587152e-02 0.0000000e+00 
1.5057438e-03 -3.4669370e-02 0.0000000e+00 
-3.7016935e-03 -3.6724141e-02 0.0000000e+00 
-1.9758725e-03 -3.6787814e-02 0.0000000e+00 
-2.5175052e-04 -3.6862358e-02 0.0000000e+00 
1.4721760e-03 -3.6947880e-02 0.0000000e+00 
-3.8648772e-03 -3.9047315e-02 0.0000000e+00 
-2.0980285e-03 -3.9114880e-02 0.0000000e+00 
-3.3286788e-04 -3.9193016e-02 0.0000000e+00 
1.4320942e-03 -3.9281832e-02 0.0000000e+00 
-4.0311417e-03 -4.1424457e-02 0.0000000e+00 
-2.2243995e-03 -4.1495894e-02 0.0000000e+00 
-4.1933274e-04 -4.1577605e-02 0.0000000e+00 
1.3855340e-03 -4.1669701e-02 0.0000000e+00 
-4.2004762e-03 -4.3854074e-02 0.0000000e+00 
-2.3549636e-03 -4.3929356e-02 0.0000000e+00 
-5.1111236e-04 -4.4014619e-02 0.0000000e+00 
1.3325388e-03 -4.4109975e-02 0.0000000e+00 
-4.3728624e-03 -4.6334685e-02 0.0000000e+00 
-2.4896915e-03 -4.6413781e-02 0.0000000e+00 
-6.0816641e-04 -4.6502566e-02 0.0000000e+00 
1.2731598e-03 -4.6601156e-02 0.0000000e+00 
-4.5482750e-03 -4.8864824e-02 0.0000000e+00 
-2.6285468e-03 -4.8947698e-02 0.0000000e+00 
-7.1044738e-04 -4.9039971e-02 0.0000000e+00 
1.2074556e-03 -4.9141764e-02 0.0000000e+00 
-4.7266820e-03 -5.1443041e-02 0.0000000e+00 
-2.7714860e-03 -5.1529649e-02 0.0000000e+00 
-8.1790085e-04 -5.1625372e-02 0.0000000e+00 
1.1354917e-03 -5.1730331e-02 0.0000000e+00 
-4.9080443e-03 -5.4067897e-02 0.0000000e+00 
-2.9184595e-03 -5.4158194e-02 0.0000000e+00 
-9.3046592e-04 -5.4257322e-02 0.0000000e+00 
1.0573399e-03 -5.4365407e-02 0.0000000e+00 
-5.0923177e-03 -5.6737971e-02 0.0000000e+00 
-3.0694114e-03 -5.6831904e-02 0.0000000e+00 
-1.0480755e-03 -5.6934391e-02 0.0000000e+00 
9.7307860e-04 -5.7045555e-02 0.0000000e+00 
-5.2794520e-03 -5.9451855e-02 0.0000000e+00 
-3.2242800e-03 -5.9549369e-02 0.0000000e+00 
-1.1706566e-03 -5.9655161e-02 0.0000000e+00 
8.8279210e-04 -5.9769356e-02 0.0000000e+00 
-5.4693918e-03 -6.2208156e-02 0.0000000e+00 
-3.3829987e-03 -6.2309192e-02 0.0000000e+00 
-1.2981308e-03 -6.2418232e-02 0.0000000e+00 
7.8657024e-04 -6.2535404e-02 0.0000000e+00 
-5.6620776e-03 -6.5005495e-02 0.0000000e+00 
-3.5454954e-03 -6.5109990e-02 0.0000000e+00 
-1.4304146e-03 -6.5222218e-02 0.0000000e+00 
6.8450825e-04 -6.5342311e-02 0.0000000e+00 
-5.8574441e-03 -6.7842511e-02 0.0000000e+00 
-3.7116936e-03 -6.7950398e-02 0.0000000e+00 
-1.5674196e-03 -6.8065752e-02 0.0000000e+00 
5.7670602e-04 -6.8188703e-02 0.0000000e+00 
-6.0554219e-03 -7.0717857e-02 0.0000000e+00 
-3.8815121e-03 -7.0829066e-02 0.0000000e+00 
-1.7090531e-03 -7.0947478e-02 0.0000000e+00 
4.6326804e-04 -7.1073225e-02 0.0000000e+00 
-6.2559374e-03 -7.3630201e-02 0.0000000e+00 
-4.0548655e-03 -7.3744658e-02 0.0000000e+00 
-1.8552179e-03 -7.3866058e-02 0.0000000e+00 
3.4430295e-04 -7.3994534e-02 0.0000000e+00 
-6.4589134e-03 -7.6578224e-02 0.0000000e+00 
-4.2316647e-03 -7.6695855e-02 0.0000000e+00 
-2.0058132e-03 -7.6820171e-02 0.0000000e+00 
2.1992346e-04 -7.6951307e-02 0.0000000e+00 
-6.6642688e-03 -7.9560628e-02 0.0000000e+00 
-4.4118170e-03 -7.9681353e-02 0.0000000e+00 
-2.1607343e-03 -7.9808510e-02 0.0000000e+00 
9.0245837e-05 -7.9942233e-02 0.0000000e+00 
-6.8719198e-03 -8.2576126e-02 0.0000000e+00 
-4.5952265e-03 -8.2699864e-02 0.0000000e+00 
-2.3198734e-03 -8.2829784e-02 0.0000000e+00 
-4.4610010e-05 -8.2966019e-02 0.0000000e+00 
-7.0817797e-03 -8.5623447e-02 0.0000000e+00 
-4.7817940e-03 -8.5750116e-02 0.0000000e+00 
-2.4831195e-03 -8.5882719e-02 0.0000000e+00 
-1.8452110e-04 -8.6021390e-02 0.0000000e+00 
-7.2937588e-03 -8.8701338e-02 0.0000000e+00 
-4.9714181e-03 -8.8830853e-02 0.0000000e+00 
-2.6503588e-03 -8.8966057e-02 0.0000000e+00 
-3.2936171e-04 -8.9107085e-02 0.0000000e+00 
-7.5077653e-03 -9.1808559e-02 0.0000000e+00 
-5.1639945e-03 -9.1940833e-02 0.0000000e+00 
-2.8214750e-03 -9.2078556e-02 0.0000000e+00 
-4.7900335e-04 -9.2221861e-02 0.0000000e+00 
-7.7237049e-03 -9.4943889e-02 0.0000000e+00 
-5.3594169e-03 -9.5078834e-02 0.0000000e+00 
-2.9963495e-03 -9.5218989e-02 0.0000000e+00 
-6.3331538e-04 -9.5364490e-02 0.0000000e+00 
-7.9414821e-03 -9.8106121e-02 0.0000000e+00 
-5.5575772e-03 -9.8243647e-02 0.0000000e+00 
-3.1748618e-03 -9.8386149e-02 0.0000000e+00 
-7.9216491e-04 -9.8533761e-02 0.0000000e+00 
-8.1609994e-03 -1.0129407e-01 0.0000000e+00 
-5.7583651e-03 -1.0143408e-01 0.0000000e+00 
-3.3568896e-03 -1.0157884e-01 0.0000000e+00 
-9.5541739e-04 -1.0172848e-01 0.0000000e+00 
-8.3821566e-03 -1.0450655e-01 0.0000000e+00 
-5.9616693e-03 -1.0464896e-01 0.0000000e+00 
-3.5423090e-03 -1.0479589e-01 0.0000000e+00 
-1.1229369e-03 -1.0494747e-01 0.0000000e+00 
-8.6048539e-03 -1.0774241e-01 0.0000000e+00 
-6.1673769e-03 -1.0788713e-01 0.0000000e+00 
-3.7309948e-03 -1.0803614e-01 0.0000000e+00 
-1.2945856e-03 -1.0818958e-01 0.0000000e+00 
-8.8289907e-03 -1.1100051e-01 0.0000000e+00 
-6.3753743e-03 -1.1114744e-01 0.0000000e+00 
-3.9228206e-03 -1.1129844e-01 0.0000000e+00 
-1.4702243e-03 -1.1145365e-01 0.0000000e+00 
-9.0544654e-03 -1.1427972e-01 0.0000000e+00 
-6.5855476e-03 -1.1442877e-01 0.0000000e+00 
-4.1176591e-03 -1.1458167e-01 0.0000000e+00 
-1.6497129e-03 -1.1473856e-01 0.0000000e+00 
-9.2811783e-03 -1.1757894e-01 0.0000000e+00 
-6.7977821e-03 -1.1773002e-01 0.0000000e+00 
-4.3153825e-03 -1.1788473e-01 0.0000000e+00 
-1.8329098e-03 -1.1804321e-01 0.0000000e+00 
-9.5090277e-03 -1.2089708e-01 0.0000000e+00 
-7.0119633e-03 -1.2105008e-01 0.0000000e+00 
-4.5158626e-03 -1.2120651e-01 0.0000000e+00 
-2.0196738e-03 -1.2136650e-01 0.0000000e+00 
-9.7379122e-03 -1.2423307e-01 0.0000000e+00 
-7.2279763e-03 -1.2438790e-01 0.0000000e+00 
-4.7189713e-03 -1.2454595e-01 0.0000000e+00 
-2.2098629e-03 -1.2470736e-01 0.0000000e+00 
-9.9677309e-03 -1.2758585e-01 0.0000000e+00 
-7.4457065e-03 -1.2774242e-01 0.0000000e+00 
-4.9245800e-03 -1.2790200e-01 0.0000000e+00 
-2.4033355e-03 -1.2806474e-01 0.0000000e+00 
-1.0198383e-02 -1.3095438e-01 0.0000000e+00 
-7.6650399e-03 -1.3111259e-01 0.0000000e+00 
-5.1325607e-03 -1.3127363e-01 0.0000000e+00 
-2.5999493e-03 -1.3143761e-01 0.0000000e+00 
-1.0429771e-02 -1.3433765e-01 0.0000000e+00 
-7.8858627e-03 -1.3449742e-01 0.0000000e+00 
-5.3427856e-03 -1.3465980e-01 0.0000000e+00 
-2.7995621e-03 -1.3482494e-01 0.0000000e+00 
-1.0661796e-02 -1.3773467e-01 0.0000000e+00 
-8.1080625e-03 -1.3789589e-01 0.0000000e+00 
-5.5551275e-03 -1.3805954e-01 0.0000000e+00 
-3.0020324e-03 -1.3822575e-01 0.0000000e+00 
-1.0894360e-02 -1.4114444e-01 0.0000000e+00 
-8.3315278e-03 -1.4130703e-01 0.0000000e+00 
-5.7694601e-03 -1.4147186e-01 0.0000000e+00 
-3.2072190e-03 -1.4163905e-01 0.0000000e+00 
-1.1127371e-02 -1.4456603e-01 0.0000000e+00 
-8.5561481e-03 -1.4472988e-01 0.0000000e+00 
-5.9856581e-03 -1.4489580e-01 0.0000000e+00 
-3.4149817e-03 -1.4506390e-01 0.0000000e+00 
-1.1360732e-02 -1.4799847e-01 0.0000000e+00 
-8.7818146e-03 -1.4816351e-01 0.0000000e+00 
-6.2035975e-03 -1.4833043e-01 0.0000000e+00 
-3.6251817e-03 -1.4849935e-01 0.0000000e+00 
-1.1594351e-02 -1.5144086e-01 0.0000000e+00 
-9.0084197e-03 -1.5160699e-01 0.0000000e+00 
-6.4231552e-03 -1.5177482e-01 0.0000000e+00 
-3.8376805e-03 -1.5194448e-01 0.0000000e+00 
-1.1828140e-02 -1.5489230e-01 0.0000000e+00 
-9.2358583e-03 -1.5505943e-01 0.0000000e+00 
-6.6442101e-03 -1.5522810e-01 0.0000000e+00 
-4.0523405e-03 -1.5539841e-01 0.0000000e+00 
-1.2062013e-02 -1.5835190e-01 0.0000000e+00 
-9.4640273e-03 -1.5851995e-01 0.0000000e+00 
-6.8666422e-03 -1.5868937e-01 0.0000000e+00 
-4.2690257e-03 -1.5886027e-01 0.0000000e+00 
-1.2295887e-02 -1.6181882e-01 0.0000000e+00 
-9.6928263e-03 -1.6198770e-01 0.0000000e+00 
-7.0903340e-03 -1.6215779e-01 0.0000000e+00 
-4.4876005e-03 -1.6232919e-01 0.0000000e+00 
-1.2529681e-02 -1.6529223e-01 0.0000000e+00 
-9.9221573e-03 -1.6546185e-01 0.0000000e+00 
-7.3151699e-03 -1.6563253e-01 0.0000000e+00 
-4.7079324e-03 -1.6580436e-01 0.0000000e+00 
-1.2763317e-02 -1.6877131e-01 0.0000000e+00 
-1.0151925e-02 -1.6894160e-01 0.0000000e+00 
-7.5410370e-03 -1.6911279e-01 0.0000000e+00 
-4.9298906e-03 -1.6928498e-01 0.0000000e+00 
-1.2996720e-02 -1.7225529e-01 0.0000000e+00 
-1.0382036e-02 -1.7242616e-01 0.0000000e+00 
-7.7678243e-03 -1.7259778e-01 0.0000000e+00 
-5.1533467e-03 -1.7277026e-01 0.0000000e+00 
-1.3229819e-02 -1.7574339e-01 0.0000000e+00 
-1.0612401e-02 -1.7591477e-01 0.0000000e+00 
-7.9954237e-03 -1.7608676e-01 0.0000000e+00 
-5.3781742e-03 -1.7625945e-01 0.0000000e+00 
-1.3462545e-02 -1.7923489e-01 0.0000000e+00 
-1.0842932e-02 -1.7940670e-01 0.0000000e+00 
-8.2237299e-03 -1.7957898e-01 0.0000000e+00 
-5.6042493e-03 -1.7975182e-01 0.0000000e+00 
-1.3694833e-02 -1.8272907e-01 0.0000000e+00 
-1.1073546e-02 -1.8290123e-01 0.0000000e+00 
-8.4526400e-03 -1.8307374e-01 0.0000000e+00 
-5.8314505e-03 -1.8324667e-01 0.0000000e+00 
-1.3926622e-02 -1.8622524e-01 0.0000000e+00 
-1.1304163e-02 -1.8639770e-01 0.0000000e+00 
-8.6820544e-03 -1.8657036e-01 0.0000000e+00 
-6.0596585e-03 -1.8674332e-01 0.0000000e+00 
-1.4157854e-02 -1.8972276e-01 0.0000000e+00 
-1.1534705e-02 -1.8989542e-01 0.0000000e+00 
-8.9118764e-03 -1.9006818e-01 0.0000000e+00 
-6.2887573e-03 -1.9024111e-01 0.0000000e+00 
-1.4388478e-02 -1.9322097e-01 0.0000000e+00 
-1.1765100e-02 -1.9339379e-01 0.0000000e+00 
-9.1420129e-03 -1.9356658e-01 0.0000000e+00 
-6.5186334e-03 -1.9373942e-01 0.0000000e+00 
-1.4618443e-02 -1.9671928e-01 0.0000000e+00 
-1.1995277e-02 -1.9689218e-01 0.0000000e+00 
-9.3723738e-03 -1.9706495e-01 0.0000000e+00 
-6.7491767e-03 -1.9723765e-01 0.0000000e+00 
-1.4847703e-02 -2.0021710e-01 0.0000000e+00 
-1.2225171e-02 -2.0039003e-01 0.0000000e+00 
-9.6028727e-03 -2.0056272e-01 0.0000000e+00 
-6.9802802e-03 -2.0073523e-01 0.0000000e+00 
-1.5076219e-02 -2.0371389e-01 0.0000000e+00 
-1.2454719e-02 -2.0388678e-01 0.0000000e+00 
-9.8334268e-03 -2.0405933e-01 0.0000000e+00 
-7.2118404e-03 -2.0423161e-01 0.0000000e+00 
-1.5303950e-02 -2.0720911e-01 0.0000000e+00 
-1.2683863e-02 -2.0738191e-01 0.0000000e+00 
-1.0063957e-02 -2.0755428e-01 0.0000000e+00 
-7.4437579e-03 -2.0772627e-01 0.0000000e+00 
-1.5530863e-02 -2.1070226e-01 0.0000000e+00 
-1.2912547e-02 -2.1087493e-01 0.0000000e+00 
-1.0294387e-02 -2.1104707e-01 0.0000000e+00 
-7.6759359e-03 -2.1121873e-01 0.0000000e+00 
-1.5756928e-02 -2.1419289e-01 0.0000000e+00 
-1.3140721e-02 -2.1436537e-01 0.0000000e+00 
-1.0524645e-02 -2.1453723e-01 0.0000000e+00 
-7.9082810e-03 -2.1470853e-01 0.0000000e+00 
-1.5982120e-02 -2.1768055e-01 0.0000000e+00 
-1.3368339e-02 -2.1785278e-01 0.0000000e+00 
-1.0754663e-02 -2.1802432e-01 0.0000000e+00 
-8.1407033e-03 -2.1819523e-01 0.0000000e+00 
-1.6206421e-02 -2.2116482e-01 0.0000000e+00 
-1.3595358e-02 -2.2133677e-01 0.0000000e+00 
-1.0984377e-02 -2.2150795e-01 0.0000000e+00 
-8.3731158e-03 -2.2167843e-01 0.0000000e+00 
-1.6429813e-02 -2.2464532e-01 0.0000000e+00 
-1.3821741e-02 -2.2481695e-01 0.0000000e+00 
-1.1213726e-02 -2.2498774e-01 0.0000000e+00 
-8.6054368e-03 -2.2515775e-01 0.0000000e+00 
-1.6652285e-02 -2.2812170e-01 0.0000000e+00 
-1.4047452e-02 -2.2829297e-01 0.0000000e+00 
-1.1442654e-02 -2.2846334e-01 0.0000000e+00 
-8.8375888e-03 -2.2863286e-01 0.0000000e+00 
-1.6873826e-02 -2.3159364e-01 0.0000000e+00 
-1.4272461e-02 -2.3176451e-01 0.0000000e+00 
-1.1671110e-02 -2.3193443e-01 0.0000000e+00 
-9.0694984e-03 -2.3210344e-01 0.0000000e+00 
-1.7094431e-02 -2.3506084e-01 0.0000000e+00 
-1.4496741e-02 -2.3523128e-01 0.0000000e+00 
-1.1899046e-02 -2.3540073e-01 0.0000000e+00 
-9.3010965e-03 -2.3556920e-01 0.0000000e+00 
-1.7314095e-02 -2.3852304e-01 0.0000000e+00 
-1.4720269e-02 -2.3869302e-01 0.0000000e+00 
-1.2126417e-02 -2.3886196e-01 0.0000000e+00 
-9.5323187e-03 -2.3902988e-01 0.0000000e+00 
-1.7532821e-02 -2.4197999e-01 0.0000000e+00 
-1.4943024e-02 -2.4214948e-01 0.0000000e+00 
-1.2353183e-02 -2.4231790e-01 0.0000000e+00 
-9.7631048e-03 -2.4248525e-01 0.0000000e+00 
-1.7750610e-02 -2.4543147e-01 0.0000000e+00 
-1.5164990e-02 -2.4560046e-01 0.0000000e+00 
-1.2579309e-02 -2.4576833e-01 0.0000000e+00 
-9.9933986e-03 -2.4593511e-01 0.0000000e+00 
-1.7967470e-02 -2.4887731e-01 0.0000000e+00 
-1.5386154e-02 -2.4904577e-01 0.0000000e+00 
-1.2804762e-02 -2.4921308e-01 0.0000000e+00 
-1.0223148e-02 -2.4937926e-01 0.0000000e+00 
-1.8183408e-02 -2.5231734e-01 0.0000000e+00 
-1.5606506e-02 -2.5248525e-01 0.0000000e+00 
-1.3029512e-02 -2.5265199e-01 0.0000000e+00 
-1.0452306e-02 -2.5281757e-01 0.0000000e+00 
-1.8398439e-02 -2.5575141e-01 0.0000000e+00 
-1.5826040e-02 -2.5591876e-01 0.0000000e+00 
-1.3253535e-02 -2.5608492e-01 0.0000000e+00 
-1.0680828e-02 -2.5624990e-01 0.0000000e+00 
-1.8612574e-02 -2.5917943e-01 0.0000000e+00 
-1.6044751e-02 -2.5934620e-01 0.0000000e+00 
-1.3476808e-02 -2.5951177e-01 0.0000000e+00 
-1.0908674e-02 -2.5967614e-01 0.0000000e+00 
-1.8825832e-02 -2.6260130e-01 0.0000000e+00 
-1.6262640e-02 -2.6276748e-01 0.0000000e+00 
-1.3699312e-02 -2.6293245e-01 0.0000000e+00 
-1.1135805e-02 -2.6309621e-01 0.0000000e+00 
-1.9038238e-02 -2.6601696e-01 0.0000000e+00 
-1.6479708e-02 -2.6618255e-01 0.0000000e+00 
-1.3921033e-02 -2.6634692e-01 0.0000000e+00 
-1.1362188e-02 -2.6651006e-01 0.0000000e+00 
-1.9249812e-02 -2.6942637e-01 0.0000000e+00 
-1.6695964e-02 -2.6959136e-01 0.0000000e+00 
-1.4141958e-02 -2.6975512e-01 0.0000000e+00 
-1.1587794e-02 -2.6991766e-01 0.0000000e+00 
-1.9460581e-02 -2.7282951e-01 0.0000000e+00 
-1.6911413e-02 -2.7299390e-01 0.0000000e+00 
-1.4362079e-02 -2.7315706e-01 0.0000000e+00 
-1.1812598e-02 -2.7331900e-01 0.0000000e+00 
-1.9670570e-02 -2.7622640e-01 0.0000000e+00 
-1.7126068e-02 -2.7639018e-01 0.0000000e+00 
-1.4581392e-02 -2.7655275e-01 0.0000000e+00 
-1.2036579e-02 -2.7671410e-01 0.0000000e+00 
-1.9879807e-02 -2.7961706e-01 0.0000000e+00 
-1.7339942e-02 -2.7978024e-01 0.0000000e+00 
-1.4799893e-02 -2.7994221e-01 0.0000000e+00 
-1.2259719e-02 -2.8010298e-01 0.0000000e+00 
-2.0088322e-02 -2.8300154e-01 0.0000000e+00 
-1.7553048e-02 -2.8316412e-01 0.0000000e+00 
-1.5017583e-02 -2.8332551e-01 0.0000000e+00 
-1.2482005e-02 -2.8348569e-01 0.0000000e+00 
-2.0296146e-02 -2.8637990e-01 0.0000000e+00 
-1.7765404e-02 -2.8654189e-01 0.0000000e+00 
-1.5234467e-02 -2.8670270e-01 0.0000000e+00 
-1.2703426e-02 -2.8686232e-01 0.0000000e+00 
-2.0503308e-02 -2.8975224e-01 0.0000000e+00 
-1.7977029e-02 -2.8991363e-01 0.0000000e+00 
-1.5450550e-02 -2.9007388e-01 0.0000000e+00 
-1.2923978e-02 -2.9023295e-01 0.0000000e+00 
-2.0709839e-02 -2.9311864e-01 0.0000000e+00 
-1.8187941e-02 -2.9327946e-01 0.0000000e+00 
-1.5665841e-02 -2.9343914e-01 0.0000000e+00 
-1.3143657e-02 -2.9359768e-01 0.0000000e+00 
-2.0915771e-02 -2.9647923e-01 0.0000000e+00 
-1.8398164e-02 -2.9663948e-01 0.0000000e+00 
-1.5880350e-02 -2.9679862e-01 0.0000000e+00 
-1.3362464e-02 -2.9695663e-01 0.0000000e+00 
-2.1121136e-02 -2.9983413e-01 0.0000000e+00 
-1.8607718e-02 -2.9999381e-01 0.0000000e+00 
-1.6094092e-02 -3.0015242e-01 0.0000000e+00 
-1.3580403e-02 -3.0030994e-01 0.0000000e+00 