# vtk DataFile Version 4.0
vtk output
ASCII
DATASET UNSTRUCTURED_GRID
POINTS 604 float
5.5000000e+00 5.9700000e+00 0.0000000e+00 
5.5000000e+00 5.9900000e+00 0.0000000e+00 
5.5266667e+00 5.9700000e+00 0.0000000e+00 
5.5266667e+00 5.9900000e+00 0.0000000e+00 
5.5000000e+00 6.0100000e+00 0.0000000e+00 
5.5266667e+00 6.0100000e+00 0.0000000e+00 
5.5533333e+00 5.9700000e+00 0.0000000e+00 
5.5533333e+00 5.9900000e+00 0.0000000e+00 
5.5000000e+00 6.0300000e+00 0.0000000e+00 
5.5266667e+00 6.0300000e+00 0.0000000e+00 
5.5533333e+00 6.0100000e+00 0.0000000e+00 
5.5800000e+00 5.9700000e+00 0.0000000e+00 
5.5533333e+00 6.0300000e+00 0.0000000e+00 
5.5800000e+00 5.9900000e+00 0.0000000e+00 
5.5800000e+00 6.0100000e+00 0.0000000e+00 
5.5800000e+00 6.0300000e+00 0.0000000e+00 
5.6066667e+00 5.9700000e+00 0.0000000e+00 
5.6066667e+00 5.9900000e+00 0.0000000e+00 
5.6066667e+00 6.0100000e+00 0.0000000e+00 
5.6066667e+00 6.0300000e+00 0.0000000e+00 
5.6333333e+00 5.9700000e+00 0.0000000e+00 
5.6333333e+00 5.9900000e+00 0.0000000e+00 
5.6333333e+00 6.0100000e+00 0.0000000e+00 
5.6333333e+00 6.0300000e+00 0.0000000e+00 
5.6600000e+00 5.9700000e+00 0.0000000e+00 
5.6600000e+00 5.9900000e+00 0.0000000e+00 
5.6600000e+00 6.0100000e+00 0.0000000e+00 
5.6600000e+00 6.0300000e+00 0.0000000e+00 
5.6866667e+00 5.9700000e+00 0.0000000e+00 
5.6866667e+00 5.9900000e+00 0.0000000e+00 
5.6866667e+00 6.0100000e+00 0.0000000e+00 
5.6866667e+00 6.0300000e+00 0.0000000e+00 
5.7133333e+00 5.9700000e+00 0.0000000e+00 
5.7133333e+00 5.9900000e+00 0.0000000e+00 
5.7133333e+00 6.0100000e+00 0.0000000e+00 
5.7133333e+00 6.0300000e+00 0.0000000e+00 
5.7400000e+00 5.9700000e+00 0.0000000e+00 
5.7400000e+00 5.9900000e+00 0.0000000e+00 
5.7400000e+00 6.0100000e+00 0.0000000e+00 
5.7400000e+00 6.0300000e+00 0.0000000e+00 
5.7666667e+00 5.9700000e+00 0.0000000e+00 
5.7666667e+00 5.9900000e+00 0.0000000e+00 
5.7666667e+00 6.0100000e+00 0.0000000e+00 
5.7666667e+00 6.0300000e+00 0.0000000e+00 
5.7933333e+00 5.9700000e+00 0.0000000e+00 
5.7933333e+00 5.9900000e+00 0.0000000e+00 
5.7933333e+00 6.0100000e+00 0.0000000e+00 
5.7933333e+00 6.0300000e+00 0.0000000e+00 
5.8200000e+00 5.9700000e+00 0.0000000e+00 
5.8200000e+00 5.9900000e+00 0.0000000e+00 
5.8200000e+00 6.0100000e+00 0.0000000e+00 
5.8200000e+00 6.0300000e+00 0.0000000e+00 
5.8466667e+00 5.9700000e+00 0.0000000e+00 
5.8466667e+00 5.9900000e+00 0.0000000e+00 
5.8466667e+00 6.0100000e+00 0.0000000e+00 
5.8466667e+00 6.0300000e+00 0.0000000e+00 
5.8733333e+00 5.9700000e+00 0.0000000e+00 
5.8733333e+00 5.9900000e+00 0.0000000e+00 
5.8733333e+00 6.0100000e+00 0.0000000e+00 
5.8733333e+00 6.0300000e+00 0.0000000e+00 
5.9000000e+00 5.9700000e+00 0.0000000e+00 
5.9000000e+00 5.9900000e+00 0.0000000e+00 
5.9000000e+00 6.0100000e+00 0.0000000e+00 
5.9000000e+00 6.0300000e+00 0.0000000e+00 
5.9266667e+00 5.9700000e+00 0.0000000e+00 
5.9266667e+00 5.9900000e+00 0.0000000e+00 
5.9266667e+00 6.0100000e+00 0.0000000e+00 
5.9266667e+00 6.0300000e+00 0.0000000e+00 
5.9533333e+00 5.9700000e+00 0.0000000e+00 
5.9533333e+00 5.9900000e+00 0.0000000e+00 
5.9533333e+00 6.0100000e+00 0.0000000e+00 
5.9533333e+00 6.0300000e+00 0.0000000e+00 
5.9800000e+00 5.9700000e+00 0.0000000e+00 
5.9800000e+00 5.9900000e+00 0.0000000e+00 
5.9800000e+00 6.0100000e+00 0.0000000e+00 
5.9800000e+00 6.0300000e+00 0.0000000e+00 
6.0066667e+00 5.9700000e+00 0.0000000e+00 
6.0066667e+00 5.9900000e+00 0.0000000e+00 
6.0066667e+00 6.0100000e+00 0.0000000e+00 
6.0066667e+00 6.0300000e+00 0.0000000e+00 
6.0333333e+00 5.9700000e+00 0.0000000e+00 
6.0333333e+00 5.9900000e+00 0.0000000e+00 
6.0333333e+00 6.0100000e+00 0.0000000e+00 
6.0333333e+00 6.0300000e+00 0.0000000e+00 
6.0600000e+00 5.9700000e+00 0.0000000e+00 
6.0600000e+00 5.9900000e+00 0.0000000e+00 
6.0600000e+00 6.0100000e+00 0.0000000e+00 
6.0600000e+00 6.0300000e+00 0.0000000e+00 
6.0866667e+00 5.9700000e+00 0.0000000e+00 
6.0866667e+00 5.9900000e+00 0.0000000e+00 
6.0866667e+00 6.0100000e+00 0.0000000e+00 
6.0866667e+00 6.0300000e+00 0.0000000e+00 
6.1133333e+00 5.9700000e+00 0.0000000e+00 
6.1133333e+00 5.9900000e+00 0.0000000e+00 
6.1133333e+00 6.0100000e+00 0.0000000e+00 
6.1133333e+00 6.0300000e+00 0.0000000e+00 
6.1400000e+00 5.9700000e+00 0.0000000e+00 
6.1400000e+00 5.9900000e+00 0.0000000e+00 
6.1400000e+00 6.0100000e+00 0.0000000e+00 
6.1400000e+00 6.0300000e+00 0.0000000e+00 
6.1666667e+00 5.9700000e+00 0.0000000e+00 
6.1666667e+00 5.9900000e+00 0.0000000e+00 
6.1666667e+00 6.0100000e+00 0.0000000e+00 
6.1666667e+00 6.0300000e+00 0.0000000e+00 
6.1933333e+00 5.9700000e+00 0.0000000e+00 
6.1933333e+00 5.9900000e+00 0.0000000e+00 
6.1933333e+00 6.0100000e+00 0.0000000e+00 
6.1933333e+00 6.0300000e+00 0.0000000e+00 
6.2200000e+00 5.9700000e+00 0.0000000e+00 
6.2200000e+00 5.9900000e+00 0.0000000e+00 
6.2200000e+00 6.0100000e+00 0.0000000e+00 
6.2200000e+00 6.0300000e+00 0.0000000e+00 
6.2466667e+00 5.9700000e+00 0.0000000e+00 
6.2466667e+00 5.9900000e+00 0.0000000e+00 
6.2466667e+00 6.0100000e+00 0.0000000e+00 
6.2466667e+00 6.0300000e+00 0.0000000e+00 
6.2733333e+00 5.9700000e+00 0.0000000e+00 
6.2733333e+00 5.9900000e+00 0.0000000e+00 
6.2733333e+00 6.0100000e+00 0.0000000e+00 
6.2733333e+00 6.0300000e+00 0.0000000e+00 
6.3000000e+00 5.9700000e+00 0.0000000e+00 
6.3000000e+00 5.9900000e+00 0.0000000e+00 
6.3000000e+00 6.0100000e+00 0.0000000e+00 
6.3000000e+00 6.0300000e+00 0.0000000e+00 
6.3266667e+00 5.9700000e+00 0.0000000e+00 
6.3266667e+00 5.9900000e+00 0.0000000e+00 
6.3266667e+00 6.0100000e+00 0.0000000e+00 
6.3266667e+00 6.0300000e+00 0.0000000e+00 
6.3533333e+00 5.9700000e+00 0.0000000e+00 
6.3533333e+00 5.9900000e+00 0.0000000e+00 
6.3533333e+00 6.0100000e+00 0.0000000e+00 
6.3533333e+00 6.0300000e+00 0.0000000e+00 
6.3800000e+00 5.9700000e+00 0.0000000e+00 
6.3800000e+00 5.9900000e+00 0.0000000e+00 
6.3800000e+00 6.0100000e+00 0.0000000e+00 
6.3800000e+00 6.0300000e+00 0.0000000e+00 
6.4066667e+00 5.9700000e+00 0.0000000e+00 
6.4066667e+00 5.9900000e+00 0.0000000e+00 
6.4066667e+00 6.0100000e+00 0.0000000e+00 
6.4066667e+00 6.0300000e+00 0.0000000e+00 
6.4333333e+00 5.9700000e+00 0.0000000e+00 
6.4333333e+00 5.9900000e+00 0.0000000e+00 
6.4333333e+00 6.0100000e+00 0.0000000e+00 
6.4333333e+00 6.0300000e+00 0.0000000e+00 
6.4600000e+00 5.9700000e+00 0.0000000e+00 
6.4600000e+00 5.9900000e+00 0.0000000e+00 
6.4600000e+00 6.0100000e+00 0.0000000e+00 
6.4600000e+00 6.0300000e+00 0.0000000e+00 
6.4866667e+00 5.9700000e+00 0.0000000e+00 
6.4866667e+00 5.9900000e+00 0.0000000e+00 
6.4866667e+00 6.0100000e+00 0.0000000e+00 
6.4866667e+00 6.0300000e+00 0.0000000e+00 
6.5133333e+00 5.9700000e+00 0.0000000e+00 
6.5133333e+00 5.9900000e+00 0.0000000e+00 
6.5133333e+00 6.0100000e+00 0.0000000e+00 
6.5133333e+00 6.0300000e+00 0.0000000e+00 
6.5400000e+00 5.9700000e+00 0.0000000e+00 
6.5400000e+00 5.9900000e+00 0.0000000e+00 
6.5400000e+00 6.0100000e+00 0.0000000e+00 
6.5400000e+00 6.0300000e+00 0.0000000e+00 
6.5666667e+00 5.9700000e+00 0.0000000e+00 
6.5666667e+00 5.9900000e+00 0.0000000e+00 
6.5666667e+00 6.0100000e+00 0.0000000e+00 
6.5666667e+00 6.0300000e+00 0.0000000e+00 
6.5933333e+00 5.9700000e+00 0.0000000e+00 
6.5933333e+00 5.9900000e+00 0.0000000e+00 
6.5933333e+00 6.0100000e+00 0.0000000e+00 
6.5933333e+00 6.0300000e+00 0.0000000e+00 
6.6200000e+00 5.9700000e+00 0.0000000e+00 
6.6200000e+00 5.9900000e+00 0.0000000e+00 
6.6200000e+00 6.0100000e+00 0.0000000e+00 
6.6200000e+00 6.0300000e+00 0.0000000e+00 
6.6466667e+00 5.9700000e+00 0.0000000e+00 
6.6466667e+00 5.9900000e+00 0.0000000e+00 
6.6466667e+00 6.0100000e+00 0.0000000e+00 
6.6466667e+00 6.0300000e+00 0.0000000e+00 
6.6733333e+00 5.9700000e+00 0.0000000e+00 
6.6733333e+00 5.9900000e+00 0.0000000e+00 
6.6733333e+00 6.0100000e+00 0.0000000e+00 
6.6733333e+00 6.0300000e+00 0.0000000e+00 
6.7000000e+00 5.9700000e+00 0.0000000e+00 
6.7000000e+00 5.9900000e+00 0.0000000e+00 
6.7000000e+00 6.0100000e+00 0.0000000e+00 
6.7000000e+00 6.0300000e+00 0.0000000e+00 
6.7266667e+00 5.9700000e+00 0.0000000e+00 
6.7266667e+00 5.9900000e+00 0.0000000e+00 
6.7266667e+00 6.0100000e+00 0.0000000e+00 
6.7266667e+00 6.0300000e+00 0.0000000e+00 
6.7533333e+00 5.9700000e+00 0.0000000e+00 
6.7533333e+00 5.9900000e+00 0.0000000e+00 
6.7533333e+00 6.0100000e+00 0.0000000e+00 
6.7533333e+00 6.0300000e+00 0.0000000e+00 
6.7800000e+00 5.9700000e+00 0.0000000e+00 
6.7800000e+00 5.9900000e+00 0.0000000e+00 
6.7800000e+00 6.0100000e+00 0.0000000e+00 
6.7800000e+00 6.0300000e+00 0.0000000e+00 
6.8066667e+00 5.9700000e+00 0.0000000e+00 
6.8066667e+00 5.9900000e+00 0.0000000e+00 
6.8066667e+00 6.0100000e+00 0.0000000e+00 
6.8066667e+00 6.0300000e+00 0.0000000e+00 
6.8333333e+00 5.9700000e+00 0.0000000e+00 
6.8333333e+00 5.9900000e+00 0.0000000e+00 
6.8333333e+00 6.0100000e+00 0.0000000e+00 
6.8333333e+00 6.0300000e+00 0.0000000e+00 
6.8600000e+00 5.9700000e+00 0.0000000e+00 
6.8600000e+00 5.9900000e+00 0.0000000e+00 
6.8600000e+00 6.0100000e+00 0.0000000e+00 
6.8600000e+00 6.0300000e+00 0.0000000e+00 
6.8866667e+00 5.9700000e+00 0.0000000e+00 
6.8866667e+00 5.9900000e+00 0.0000000e+00 
6.8866667e+00 6.0100000e+00 0.0000000e+00 
6.8866667e+00 6.0300000e+00 0.0000000e+00 
6.9133333e+00 5.9700000e+00 0.0000000e+00 
6.9133333e+00 5.9900000e+00 0.0000000e+00 
6.9133333e+00 6.0100000e+00 0.0000000e+00 
6.9133333e+00 6.0300000e+00 0.0000000e+00 
6.9400000e+00 5.9700000e+00 0.0000000e+00 
6.9400000e+00 5.9900000e+00 0.0000000e+00 
6.9400000e+00 6.0100000e+00 0.0000000e+00 
6.9400000e+00 6.0300000e+00 0.0000000e+00 
6.9666667e+00 5.9700000e+00 0.0000000e+00 
6.9666667e+00 5.9900000e+00 0.0000000e+00 
6.9666667e+00 6.0100000e+00 0.0000000e+00 
6.9666667e+00 6.0300000e+00 0.0000000e+00 
6.9933333e+00 5.9700000e+00 0.0000000e+00 
6.9933333e+00 5.9900000e+00 0.0000000e+00 
6.9933333e+00 6.0100000e+00 0.0000000e+00 
6.9933333e+00 6.0300000e+00 0.0000000e+00 
7.0200000e+00 5.9700000e+00 0.0000000e+00 
7.0200000e+00 5.9900000e+00 0.0000000e+00 
[...]
POINT_DATA 604
FIELD FieldData 2
DISPLACEMENT 3 604  float
0.0000000e+00 0.0000000e+00 0.0000000e+00 
0.0000000e+00 0.0000000e+00 0.0000000e+00 
-5.4881843e-08 1.5496727e-08 0.0000000e+00 
-7.9977968e-08 5.5080502e-08 0.0000000e+00 
0.0000000e+00 0.0000000e+00 0.0000000e+00 
-9.4052252e-08 9.3213533e-08 0.0000000e+00 
-1.5509663e-07 9.9726540e-08 0.0000000e+00 
-1.8645071e-07 1.4694663e-07 0.0000000e+00 
0.0000000e+00 0.0000000e+00 0.0000000e+00 
-1.4630231e-07 1.4227662e-07 0.0000000e+00 
-1.9849771e-07 1.9237519e-07 0.0000000e+00 
-3.0995984e-07 1.5913808e-07 0.0000000e+00 
-2.3377390e-07 2.2908463e-07 0.0000000e+00 
-3.0716726e-07 2.1521914e-07 0.0000000e+00 
-2.8267827e-07 2.5747249e-07 0.0000000e+00 
-2.7875269e-07 2.8635296e-07 0.0000000e+00 
-5.1449180e-07 1.4680947e-07 0.0000000e+00 
-4.4260291e-07 2.1079731e-07 0.0000000e+00 
-3.4982285e-07 2.5289477e-07 0.0000000e+00 
-2.7753720e-07 2.7305942e-07 0.0000000e+00 
-7.6575504e-07 2.0698791e-08 0.0000000e+00 
-5.9378886e-07 9.2876764e-08 0.0000000e+00 
-4.0140490e-07 1.3499590e-07 0.0000000e+00 
-2.2912800e-07 1.4709577e-07 0.0000000e+00 
-1.0631108e-06 -2.5996874e-07 0.0000000e+00 
-7.6045022e-07 -1.7979719e-07 0.0000000e+00 
-4.3779728e-07 -1.3760253e-07 0.0000000e+00 
-1.3484536e-07 -1.3344471e-07 0.0000000e+00 
-1.4055575e-06 -7.3572006e-07 0.0000000e+00 
-9.4230558e-07 -6.4766233e-07 0.0000000e+00 
-4.5937574e-07 -6.0538707e-07 0.0000000e+00 
4.4136814e-09 -6.0889760e-07 0.0000000e+00 
-1.7923702e-06 -1.4460674e-06 0.0000000e+00 
-1.1390407e-06 -1.3503456e-06 0.0000000e+00 
-4.6647618e-07 -1.3079946e-06 0.0000000e+00 
1.8738751e-07 -1.3190920e-06 0.0000000e+00 
-2.2224063e-06 -2.4299521e-06 0.0000000e+00 
-1.3504243e-06 -2.3266067e-06 0.0000000e+00 
-4.5954505e-07 -2.2841036e-06 0.0000000e+00 
4.1321605e-07 -2.3024220e-06 0.0000000e+00 
-2.6948919e-06 -3.7248822e-06 0.0000000e+00 
-1.5761364e-06 -3.6142242e-06 0.0000000e+00 
-4.3895071e-07 -3.5716123e-06 0.0000000e+00 
6.8058242e-07 -3.5971428e-06 0.0000000e+00 
-3.2086391e-06 -5.3681384e-06 0.0000000e+00 
-1.8159253e-06 -5.2501459e-06 0.0000000e+00 
-4.0515213e-07 -5.2073227e-06 0.0000000e+00 
9.8856161e-07 -5.2396221e-06 0.0000000e+00 
-3.7628017e-06 -7.3951571e-06 0.0000000e+00 
-2.0694553e-06 -7.2702265e-06 0.0000000e+00 
-3.5853772e-07 -7.2272674e-06 0.0000000e+00 
1.3358101e-06 -7.2663908e-06 0.0000000e+00 
-4.3561549e-06 -9.8414398e-06 0.0000000e+00 
-2.3364547e-06 -9.7094995e-06 0.0000000e+00 
-2.9956817e-07 -9.6662859e-06 0.0000000e+00 
1.7213338e-06 -9.7117334e-06 0.0000000e+00 
-4.9878350e-06 -1.2740314e-05 0.0000000e+00 
-2.6165655e-06 -1.2601823e-05 0.0000000e+00 
-2.2863938e-07 -1.2558480e-05 0.0000000e+00 
2.1437967e-06 -1.2610352e-05 0.0000000e+00 
-5.6566186e-06 -1.6125449e-05 0.0000000e+00 
-2.9094868e-06 -1.5980313e-05 0.0000000e+00 
-1.4619898e-07 -1.5936626e-05 0.0000000e+00 
2.6021087e-06 -1.5994411e-05 0.0000000e+00 
-6.3614438e-06 -2.0028347e-05 0.0000000e+00 
-3.2149839e-06 -1.9876775e-05 0.0000000e+00 
-5.2786731e-08 -1.9832771e-05 0.0000000e+00 
3.0950346e-06 -1.9896278e-05 0.0000000e+00 
-7.1012346e-06 -2.4479523e-05 0.0000000e+00 
-3.5325880e-06 -2.4322024e-05 0.0000000e+00 
5.1293030e-08 -2.4277892e-05 0.0000000e+00 
3.6213348e-06 -2.4347226e-05 0.0000000e+00 
-7.8747678e-06 -2.9509586e-05 0.0000000e+00 
-3.8619617e-06 -2.9346064e-05 0.0000000e+00 
1.6560867e-07 -2.9301683e-05 0.0000000e+00 
4.1798773e-06 -2.9376346e-05 0.0000000e+00 
-8.6809866e-06 -3.5146596e-05 0.0000000e+00 
-4.2027441e-06 -3.4977580e-05 0.0000000e+00 
2.8973886e-07 -3.4933080e-05 0.0000000e+00 
4.7694332e-06 -3.5013187e-05 0.0000000e+00 
-9.5187162e-06 -4.1419113e-05 0.0000000e+00 
-4.5546018e-06 -4.1244475e-05 0.0000000e+00 
4.2327531e-07 -4.1199740e-05 0.0000000e+00 
5.3888322e-06 -4.1284803e-05 0.0000000e+00 
-1.0386903e-05 -4.8353079e-05 0.0000000e+00 
-4.9171789e-06 -4.8173371e-05 0.0000000e+00 
5.6581357e-07 -4.8128552e-05 0.0000000e+00 
6.0369870e-06 -4.8218695e-05 0.0000000e+00 
-1.1284464e-05 -5.5975060e-05 0.0000000e+00 
-5.2901158e-06 -5.5790182e-05 0.0000000e+00 
7.1699335e-07 -5.5745196e-05 0.0000000e+00 
6.7127288e-06 -5.5839998e-05 0.0000000e+00 
-1.2210280e-05 -6.4309105e-05 0.0000000e+00 
-5.6730776e-06 -6.4119575e-05 0.0000000e+00 
8.7642652e-07 -6.4074547e-05 0.0000000e+00 
7.4150152e-06 -6.4174089e-05 0.0000000e+00 
-1.3163354e-05 -7.3379766e-05 0.0000000e+00 
-6.0657214e-06 -7.3185512e-05 0.0000000e+00 
1.0437595e-06 -7.3140382e-05 0.0000000e+00 
8.1427505e-06 -7.3244285e-05 0.0000000e+00 
-1.4142694e-05 -8.3209345e-05 0.0000000e+00 
-6.4677326e-06 -8.3010837e-05 0.0000000e+00 
1.2186294e-06 -8.2965728e-05 0.0000000e+00 
8.8949327e-06 -8.3074062e-05 0.0000000e+00 
-1.5147376e-05 -9.3820557e-05 0.0000000e+00 
-6.8787975e-06 -9.3617719e-05 0.0000000e+00 
1.4007099e-06 -9.3572565e-05 0.0000000e+00 
9.6705048e-06 -9.3684996e-05 0.0000000e+00 
-1.6176382e-05 -1.0523394e-04 0.0000000e+00 
-7.2986299e-06 -1.0502723e-04 0.0000000e+00 
1.5896593e-06 -1.0498215e-04 0.0000000e+00 
1.0468628e-05 -1.0509874e-04 0.0000000e+00 
-1.7228910e-05 -1.1747046e-04 0.0000000e+00 
-7.7269107e-06 -1.1725986e-04 0.0000000e+00 
1.7851873e-06 -1.1721483e-04 0.0000000e+00 
1.1288322e-05 -1.1733530e-04 0.0000000e+00 
-1.8304014e-05 -1.3054922e-04 0.0000000e+00 
-8.1633797e-06 -1.3033510e-04 0.0000000e+00 
1.9869831e-06 -1.3029023e-04 0.0000000e+00 
1.2128724e-05 -1.3041461e-04 0.0000000e+00 
-1.9400974e-05 -1.4448953e-04 0.0000000e+00 
-8.6077558e-06 -1.4427190e-04 0.0000000e+00 
2.1947658e-06 -1.4422714e-04 0.0000000e+00 
1.2988922e-05 -1.4435519e-04 0.0000000e+00 
-2.0518975e-05 -1.5930929e-04 0.0000000e+00 
-9.0598517e-06 -1.5908835e-04 0.0000000e+00 
2.4082087e-06 -1.5904373e-04 0.0000000e+00 
1.3868226e-05 -1.5917539e-04 0.0000000e+00 
-2.1657227e-05 -1.7502576e-04 0.0000000e+00 
-9.5193799e-06 -1.7480181e-04 0.0000000e+00 
2.6270995e-06 -1.7475746e-04 0.0000000e+00 
1.4765837e-05 -1.7489272e-04 0.0000000e+00 
-2.2815109e-05 -1.9165610e-04 0.0000000e+00 
-9.9861123e-06 -1.9142916e-04 0.0000000e+00 
2.8511832e-06 -1.9138506e-04 0.0000000e+00 
1.5680983e-05 -1.9152374e-04 0.0000000e+00 
-2.3991929e-05 -2.0921621e-04 0.0000000e+00 
-1.0459861e-05 -2.0898656e-04 0.0000000e+00 
3.0801945e-06 -2.0894280e-04 0.0000000e+00 
1.6613042e-05 -2.0908492e-04 0.0000000e+00 
-2.5187100e-05 -2.2772202e-04 0.0000000e+00 
-1.0940429e-05 -2.2748968e-04 0.0000000e+00 
3.3138972e-06 -2.2744624e-04 0.0000000e+00 
1.7561265e-05 -2.2759164e-04 0.0000000e+00 
-2.6399940e-05 -2.4718819e-04 0.0000000e+00 
-1.1427645e-05 -2.4695344e-04 0.0000000e+00 
3.5520420e-06 -2.4691041e-04 0.0000000e+00 
1.8525011e-05 -2.4705911e-04 0.0000000e+00 
-2.7629938e-05 -2.6762950e-04 0.0000000e+00 
-1.1921323e-05 -2.6739237e-04 0.0000000e+00 
3.7943846e-06 -2.6734975e-04 0.0000000e+00 
1.9503622e-05 -2.6750156e-04 0.0000000e+00 
-2.8876485e-05 -2.8905963e-04 0.0000000e+00 
-1.2421311e-05 -2.8882038e-04 0.0000000e+00 
4.0406895e-06 -2.8877824e-04 0.0000000e+00 
2.0496462e-05 -2.8893321e-04 0.0000000e+00 
-3.0139078e-05 -3.1149227e-04 0.0000000e+00 
-1.2927441e-05 -3.1125093e-04 0.0000000e+00 
4.2907168e-06 -3.1120926e-04 0.0000000e+00 
2.1502884e-05 -3.1136722e-04 0.0000000e+00 
-3.1417099e-05 -3.3494005e-04 0.0000000e+00 
-1.3439565e-05 -3.3469687e-04 0.0000000e+00 
4.5442250e-06 -3.3465575e-04 0.0000000e+00 
2.2522270e-05 -3.3481674e-04 0.0000000e+00 
-3.2710036e-05 -3.5941559e-04 0.0000000e+00 
-1.3957528e-05 -3.5917059e-04 0.0000000e+00 
4.8009729e-06 -3.5913004e-04 0.0000000e+00 
2.3553984e-05 -3.5929388e-04 0.0000000e+00 
-3.4017366e-05 -3.8493045e-04 0.0000000e+00 
-1.4481189e-05 -3.8468389e-04 0.0000000e+00 
5.0607207e-06 -3.8464397e-04 0.0000000e+00 
2.4597368e-05 -3.8481072e-04 0.0000000e+00 
-3.5338574e-05 -4.1149628e-04 0.0000000e+00 
-1.5010419e-05 -4.1124816e-04 0.0000000e+00 
5.3232006e-06 -4.1120885e-04 0.0000000e+00 
2.5651834e-05 -4.1137830e-04 0.0000000e+00 
-3.6673136e-05 -4.3912353e-04 0.0000000e+00 
-1.5545079e-05 -4.3887413e-04 0.0000000e+00 
5.5881809e-06 -4.3883554e-04 0.0000000e+00 
2.6716663e-05 -4.3900776e-04 0.0000000e+00 
-3.8020569e-05 -4.6782289e-04 0.0000000e+00 
-1.6085036e-05 -4.6757220e-04 0.0000000e+00 
5.8554034e-06 -4.6753424e-04 0.0000000e+00 
2.7791260e-05 -4.6770902e-04 0.0000000e+00 
-3.9380329e-05 -4.9760405e-04 0.0000000e+00 
-1.6630244e-05 -4.9735215e-04 0.0000000e+00 
6.1245310e-06 -4.9731484e-04 0.0000000e+00 
2.8875057e-05 -4.9749207e-04 0.0000000e+00 
-4.0751964e-05 -5.2847596e-04 0.0000000e+00 
-1.7180503e-05 -5.2822320e-04 0.0000000e+00 
6.3953897e-06 -5.2818672e-04 0.0000000e+00 
2.9967264e-05 -5.2836655e-04 0.0000000e+00 
-4.2134934e-05 -5.6044799e-04 0.0000000e+00 
-1.7735700e-05 -5.6019426e-04 0.0000000e+00 
6.6676944e-06 -5.6015850e-04 0.0000000e+00 
3.1067293e-05 -5.6034059e-04 0.0000000e+00 
-4.3528715e-05 -5.9352778e-04 0.0000000e+00 
-1.8295700e-05 -5.9327350e-04 0.0000000e+00 
6.9411935e-06 -5.9323861e-04 0.0000000e+00 
3.2174550e-05 -5.9342320e-04 0.0000000e+00 
-4.4932778e-05 -6.2772375e-04 0.0000000e+00 
-1.8860354e-05 -6.2746877e-04 0.0000000e+00 
7.2156472e-06 -6.2743470e-04 0.0000000e+00 
3.3288357e-05 -6.2762143e-04 0.0000000e+00 
-4.6346537e-05 -6.6304241e-04 0.0000000e+00 
-1.9429516e-05 -6.6278717e-04 0.0000000e+00 
7.4908039e-06 -6.6275405e-04 0.0000000e+00 
3.4408058e-05 -6.6294316e-04 0.0000000e+00 
-4.7769455e-05 -6.9949118e-04 0.0000000e+00 
-2.0003058e-05 -6.9923549e-04 0.0000000e+00 
7.7663719e-06 -6.9920323e-04 0.0000000e+00 
3.5533021e-05 -6.9939427e-04 0.0000000e+00 
-4.9201034e-05 -7.3707541e-04 0.0000000e+00 
-2.0580825e-05 -7.3681977e-04 0.0000000e+00 
8.0421029e-06 -7.3678854e-04 0.0000000e+00 
3.6662497e-05 -7.3698184e-04 0.0000000e+00 
-5.0640687e-05 -7.7580161e-04 0.0000000e+00 
-2.1162687e-05 -7.7554576e-04 0.0000000e+00 
8.3177039e-06 -7.7551541e-04 0.0000000e+00 
3.7795786e-05 -7.7571041e-04 0.0000000e+00 
-5.2087779e-05 -8.1567382e-04 0.0000000e+00 
-2.1748467e-05 -8.1541834e-04 0.0000000e+00 
8.5929018e-06 -8.1538911e-04 0.0000000e+00 
3.8932270e-05 -8.1558623e-04 0.0000000e+00 
-5.3541702e-05 -8.5669749e-04 0.0000000e+00 
-2.2337959e-05 -8.5644212e-04 0.0000000e+00 
8.8674463e-06 -8.5641388e-04 0.0000000e+00 
4.0071123e-05 -8.5661257e-04 0.0000000e+00 
-5.5001666e-05 -8.9887533e-04 0.0000000e+00 
-2.2930963e-05 -8.9862070e-04 0.0000000e+00 
9.1410492e-06 -8.9859364e-04 0.0000000e+00 
4.1211618e-05 -8.9879429e-04 0.0000000e+00 
-5.6467034e-05 -9.4221157e-04 0.0000000e+00 
-2.3527282e-05 -9.4195734e-04 0.0000000e+00 
9.4134009e-06 -9.4193131e-04 0.0000000e+00 
4.2352934e-05 -9.4213329e-04 0.0000000e+00 
-5.7937065e-05 -9.8670744e-04 0.0000000e+00 
-2.4126689e-05 -9.8645430e-04 0.0000000e+00 
9.6842288e-06 -9.8642959e-04 0.0000000e+00 
4.3494285e-05 -9.8663336e-04 0.0000000e+00 
-5.9411154e-05 -1.0323660e-03 0.0000000e+00 
-2.4728925e-05 -1.0321136e-03 0.0000000e+00 
9.9532692e-06 -1.0320899e-03 0.0000000e+00 
4.4634729e-05 -1.0322948e-03 0.0000000e+00 
-6.0888335e-05 -1.0791877e-03 0.0000000e+00 
-2.5333972e-05 -1.0789363e-03 0.0000000e+00 
1.0220024e-05 -1.0789136e-03 0.0000000e+00 
4.5773655e-05 -1.0791196e-03 0.0000000e+00 
-6.2367896e-05 -1.1271721e-03 0.0000000e+00 
-2.5941367e-05 -1.1269223e-03 0.0000000e+00 
1.0484445e-05 -1.1269011e-03 0.0000000e+00 
4.6910221e-05 -1.1271086e-03 0.0000000e+00 
-6.3849157e-05 -1.1763204e-03 0.0000000e+00 
-2.6550862e-05 -1.1760718e-03 0.0000000e+00 
1.0746222e-05 -1.1760518e-03 0.0000000e+00 
4.8043529e-05 -1.1762601e-03 0.0000000e+00 
-6.5331085e-05 -1.2266300e-03 0.0000000e+00 
-2.7162226e-05 -1.2263834e-03 0.0000000e+00 
1.1005052e-05 -1.2263649e-03 0.0000000e+00 
4.9172897e-05 -1.2265745e-03 0.0000000e+00 
-6.6813065e-05 -1.2781004e-03 0.0000000e+00 
-2.7775140e-05 -1.2778555e-03 0.0000000e+00 
1.1260711e-05 -1.2778383e-03 0.0000000e+00 
5.0297324e-05 -1.2780485e-03 0.0000000e+00 
-6.8294098e-05 -1.3307279e-03 0.0000000e+00 
-2.8389347e-05 -1.3304854e-03 0.0000000e+00 
1.1512911e-05 -1.3304698e-03 0.0000000e+00 
5.1416248e-05 -1.3306812e-03 0.0000000e+00 
-6.9773524e-05 -1.3845107e-03 0.0000000e+00 
-2.9004589e-05 -1.3842701e-03 0.0000000e+00 
1.1761382e-05 -1.3842558e-03 0.0000000e+00 
5.2528677e-05 -1.3844675e-03 0.0000000e+00 
-7.1250364e-05 -1.4394431e-03 0.0000000e+00 
-2.9620599e-05 -1.4392053e-03 0.0000000e+00 
1.2005838e-05 -1.4391927e-03 0.0000000e+00 
5.3633954e-05 -1.4394054e-03 0.0000000e+00 
-7.2724024e-05 -1.4955221e-03 0.0000000e+00 
-3.0237014e-05 -1.4952867e-03 0.0000000e+00 
1.2246093e-05 -1.4952756e-03 0.0000000e+00 
5.4731054e-05 -1.4954885e-03 0.0000000e+00 
-7.4193299e-05 -1.5527407e-03 0.0000000e+00 
-3.0853570e-05 -1.5525085e-03 0.0000000e+00 
1.2481865e-05 -1.5524991e-03 0.0000000e+00 
5.5819465e-05 -1.5527128e-03 0.0000000e+00 
-7.5657609e-05 -1.6110943e-03 0.0000000e+00 
-3.1469955e-05 -1.6108648e-03 0.0000000e+00 
1.2712936e-05 -1.6108570e-03 0.0000000e+00 
5.6898205e-05 -1.6110707e-03 0.0000000e+00 
-7.7115971e-05 -1.6705744e-03 0.0000000e+00 
-3.2085916e-05 -1.6703484e-03 0.0000000e+00 
1.2939062e-05 -1.6703425e-03 0.0000000e+00 
5.7966704e-05 -1.6705568e-03 0.0000000e+00 
-7.8567891e-05 -1.7311750e-03 0.0000000e+00 
-3.2701086e-05 -1.7309521e-03 0.0000000e+00 
1.3160059e-05 -1.7309478e-03 0.0000000e+00 
5.9024037e-05 -1.7311619e-03 0.0000000e+00 
-8.0012117e-05 -1.7928865e-03 0.0000000e+00 
-3.3315183e-05 -1.7926675e-03 0.0000000e+00 
1.3375672e-05 -1.7926652e-03 0.0000000e+00 
6.0069723e-05 -1.7928797e-03 0.0000000e+00 
-8.1448129e-05 -1.8557014e-03 0.0000000e+00 
-3.3927830e-05 -1.8554859e-03 0.0000000e+00 
1.3585831e-05 -1.8554854e-03 0.0000000e+00 
6.1102639e-05 -1.8556997e-03 0.0000000e+00 
-8.2874977e-05 -1.9196091e-03 0.0000000e+00 
-3.4538848e-05 -1.9193975e-03 0.0000000e+00 
1.3790158e-05 -1.9193988e-03 0.0000000e+00 
6.2122554e-05 -1.9196128e-03 0.0000000e+00 
-8.4291570e-05 -1.9845990e-03 0.0000000e+00 
-3.5147719e-05 -1.9843918e-03 0.0000000e+00 
1.3988680e-05 -1.9843953e-03 0.0000000e+00 
6.3128804e-05 -1.9846094e-03 0.0000000e+00 
-8.5697382e-05 -2.0506614e-03 0.0000000e+00 
-3.5754133e-05 -2.0504583e-03 0.0000000e+00 
1.4181271e-05 -2.0504637e-03 0.0000000e+00 
6.4120481e-05 -2.0506775e-03 0.0000000e+00 
-8.7091526e-05 -2.1177835e-03 0.0000000e+00 
-3.6357848e-05 -2.1175850e-03 0.0000000e+00 
1.4367705e-05 -2.1175927e-03 0.0000000e+00 
6.5097392e-05 -2.1178064e-03 0.0000000e+00 
-8.8473605e-05 -2.1859541e-03 0.0000000e+00 
-3.6958479e-05 -2.1857602e-03 0.0000000e+00 
1.4548001e-05 -2.1857700e-03 0.0000000e+00 
6.6058600e-05 -2.1859835e-03 0.0000000e+00 
-8.9842477e-05 -2.2551598e-03 0.0000000e+00 
-3.7555827e-05 -2.2549709e-03 0.0000000e+00 
1.4721999e-05 -2.2549831e-03 0.0000000e+00 
6.7004110e-05 -2.2551963e-03 0.0000000e+00 
-9.1197931e-05 -2.3253880e-03 0.0000000e+00 
-3.8149484e-05 -2.3252042e-03 0.0000000e+00 
1.4889639e-05 -2.3252186e-03 0.0000000e+00 
6.7933188e-05 -2.3254314e-03 0.0000000e+00 
-9.2538821e-05 -2.3966253e-03 0.0000000e+00 
-3.8739224e-05 -2.3964466e-03 0.0000000e+00 
1.5050751e-05 -2.3964635e-03 0.0000000e+00 
6.8845518e-05 -2.3966758e-03 0.0000000e+00 
-9.3864692e-05 -2.4688571e-03 0.0000000e+00 
-3.9324621e-05 -2.4686839e-03 0.0000000e+00 
1.5205356e-05 -2.4687033e-03 0.0000000e+00 
6.9740132e-05 -2.4689154e-03 0.0000000e+00 
-9.5174496e-05 -2.5420693e-03 0.0000000e+00 
-3.9905416e-05 -2.5419015e-03 0.0000000e+00 
1.5353246e-05 -2.5419234e-03 0.0000000e+00 
7.0617010e-05 -2.5421348e-03 0.0000000e+00 
-9.6467669e-05 -2.6162458e-03 0.0000000e+00 
-4.0481225e-05 -2.6160839e-03 0.0000000e+00 
1.5494288e-05 -2.6161084e-03 0.0000000e+00 
7.1475238e-05 -2.6163193e-03 0.0000000e+00 
-9.7743019e-05 -2.6913714e-03 0.0000000e+00 
-4.1051727e-05 -2.6912153e-03 0.0000000e+00 
1.5628239e-05 -2.6912423e-03 0.0000000e+00 
7.2314065e-05 -2.6914523e-03 0.0000000e+00 
-9.8999814e-05 -2.7674285e-03 0.0000000e+00 
-4.1616516e-05 -2.7672786e-03 0.0000000e+00 
1.5754984e-05 -2.7673083e-03 0.0000000e+00 
7.3132463e-05 -2.7675176e-03 0.0000000e+00 
-1.0023690e-04 -2.8444001e-03 0.0000000e+00 
-4.2175304e-05 -2.8442562e-03 0.0000000e+00 
1.5874254e-05 -2.8442884e-03 0.0000000e+00 
7.3930249e-05 -2.8444966e-03 0.0000000e+00 
-1.0145367e-04 -2.9222666e-03 0.0000000e+00 
-4.2727586e-05 -2.9221296e-03 0.0000000e+00 
1.5986053e-05 -2.9221649e-03 0.0000000e+00 
7.4706436e-05 -2.9223724e-03 0.0000000e+00 
-1.0264893e-04 -3.0010097e-03 0.0000000e+00 
-4.3272684e-05 -3.0008798e-03 0.0000000e+00 
1.6090532e-05 -3.0009183e-03 0.0000000e+00 
7.5460575e-05 -3.0011252e-03 0.0000000e+00 
-1.0382167e-04 -3.0806111e-03 0.0000000e+00 
-4.3810542e-05 -3.0804876e-03 0.0000000e+00 
1.6187222e-05 -3.0805287e-03 0.0000000e+00 
7.6192144e-05 -3.0807339e-03 0.0000000e+00 
-1.0497127e-04 -3.1610480e-03 0.0000000e+00 
-4.4340725e-05 -3.1609321e-03 0.0000000e+00 
1.6276043e-05 -3.1609762e-03 0.0000000e+00 
7.6900221e-05 -3.1611807e-03 0.0000000e+00 
-1.0609673e-04 -3.2423020e-03 0.0000000e+00 
-4.4862898e-05 -3.2421927e-03 0.0000000e+00 
1.6356774e-05 -3.2422394e-03 0.0000000e+00 
7.7584303e-05 -3.2424419e-03 0.0000000e+00 
-1.0719724e-04 -3.3243486e-03 0.0000000e+00 
-4.5376728e-05 -3.3242471e-03 0.0000000e+00 
1.6429378e-05 -3.3242970e-03 0.0000000e+00 
7.8243456e-05 -3.3244987e-03 0.0000000e+00 
-1.0827219e-04 -3.4071681e-03 0.0000000e+00 
-4.5881949e-05 -3.4070733e-03 0.0000000e+00 
1.6493691e-05 -3.4071258e-03 0.0000000e+00 
7.8877520e-05 -3.4073252e-03 0.0000000e+00 
-1.0932104e-04 -3.4907345e-03 0.0000000e+00 
-4.6378261e-05 -3.4906479e-03 0.0000000e+00 
1.6549623e-05 -3.4907034e-03 0.0000000e+00 
7.9485954e-05 -3.4909018e-03 0.0000000e+00 
-1.1034300e-04 -3.5750279e-03 0.0000000e+00 
-4.6865454e-05 -3.5749480e-03 0.0000000e+00 
1.6597063e-05 -3.5750062e-03 0.0000000e+00 
8.0068307e-05 -3.5752020e-03 0.0000000e+00 
-1.1133767e-04 -3.6600209e-03 0.0000000e+00 
-4.7343159e-05 -3.6599495e-03 0.0000000e+00 
1.6636059e-05 -3.6600109e-03 0.0000000e+00 
8.0624058e-05 -3.6602057e-03 0.0000000e+00 
-1.1230435e-04 -3.7456932e-03 0.0000000e+00 
-4.7811180e-05 -3.7456286e-03 0.0000000e+00 
1.6666519e-05 -3.7456926e-03 0.0000000e+00 
8.1153186e-05 -3.7458846e-03 0.0000000e+00 
-1.1324264e-04 -3.8320166e-03 0.0000000e+00 
-4.8269385e-05 -3.8319604e-03 0.0000000e+00 
1.6688458e-05 -3.8320274e-03 0.0000000e+00 
8.1655378e-05 -3.8322184e-03 0.0000000e+00 
-1.1415256e-04 -3.9189697e-03 0.0000000e+00 
-4.8717672e-05 -3.9189203e-03 0.0000000e+00 
1.6701912e-05 -3.9189898e-03 0.0000000e+00 
8.2130518e-05 -3.9191779e-03 0.0000000e+00 
-1.1503413e-04 -4.0065240e-03 0.0000000e+00 
-4.9155932e-05 -4.0064831e-03 0.0000000e+00 
1.6706904e-05 -4.0065557e-03 0.0000000e+00 
8.2578795e-05 -4.0067425e-03 0.0000000e+00 
-1.1588705e-04 -4.0946591e-03 0.0000000e+00 
-4.9584197e-05 -4.0946248e-03 0.0000000e+00 
1.6703491e-05 -4.0946997e-03 0.0000000e+00 
8.3000304e-05 -4.0948835e-03 0.0000000e+00 
-1.1671130e-04 -4.1833460e-03 0.0000000e+00 
-5.0002447e-05 -4.1833200e-03 0.0000000e+00 
1.6691780e-05 -4.1833982e-03 0.0000000e+00 
8.3395389e-05 -4.1835808e-03 0.0000000e+00 
-1.1750742e-04 -4.2725625e-03 0.0000000e+00 
-5.0410029e-05 -4.2725447e-03 0.0000000e+00 
1.6672595e-05 -4.2726262e-03 0.0000000e+00 
8.3764210e-05 -4.2728075e-03 0.0000000e+00 
-1.1827544e-04 -4.3622868e-03 0.0000000e+00 
-5.0807694e-05 -4.3622753e-03 0.0000000e+00 
1.6645392e-05 -4.3623589e-03 0.0000000e+00 
8.4107222e-05 -4.3625372e-03 0.0000000e+00 
-1.1901572e-04 -4.4524906e-03 0.0000000e+00 
-5.1195519e-05 -4.4524870e-03 0.0000000e+00 
1.6610365e-05 -4.4525735e-03 0.0000000e+00 
8.4424880e-05 -4.4527507e-03 0.0000000e+00 
-1.1972895e-04 -4.5431547e-03 0.0000000e+00 
-5.1573572e-05 -4.5431572e-03 0.0000000e+00 
1.6567769e-05 -4.5432458e-03 0.0000000e+00 
8.4717552e-05 -4.5434199e-03 0.0000000e+00 
-1.2041552e-04 -4.6342518e-03 0.0000000e+00 
-5.1941987e-05 -4.6342621e-03 0.0000000e+00 
1.6517860e-05 -4.6343534e-03 0.0000000e+00 
8.4985912e-05 -4.6345266e-03 0.0000000e+00 
-1.2107612e-04 -4.7257640e-03 0.0000000e+00 
-5.2300943e-05 -4.7257799e-03 0.0000000e+00 
1.6460913e-05 -4.7258732e-03 0.0000000e+00 
8.5230643e-05 -4.7260435e-03 0.0000000e+00 