# vtk DataFile Version 4.0
vtk output
ASCII
DATASET UNSTRUCTURED_GRID
POINTS 604 float
5.5000000e+00 5.9700000e+00 0.0000000e+00 
5.5000000e+00 5.9900000e+00 0.0000000e+00 
5.5266667e+00 5.9700000e+00 0.0000000e+00 
5.5266667e+00 5.9900000e+00 0.0000000e+00 
5.5000000e+00 6.0100000e+00 0.0000000e+00 
5.5266667e+00 6.0100000e+00 0.0000000e+00 
5.5533333e+00 5.9700000e+00 0.0000000e+00 
5.5533333e+00 5.9900000e+00 0.0000000e+00 
5.5000000e+00 6.0300000e+00 0.0000000e+00 
5.5266667e+00 6.0300000e+00 0.0000000e+00 
5.5533333e+00 6.0100000e+00 0.0000000e+00 
5.5800000e+00 5.9700000e+00 0.0000000e+00 
5.5533333e+00 6.0300000e+00 0.0000000e+00 
5.5800000e+00 5.9900000e+00 0.0000000e+00 
5.5800000e+00 6.0100000e+00 0.0000000e+00 
5.5800000e+00 6.0300000e+00 0.0000000e+00 
5.6066667e+00 5.9700000e+00 0.0000000e+00 
5.6066667e+00 5.9900000e+00 0.0000000e+00 
5.6066667e+00 6.0100000e+00 0.0000000e+00 
5.6066667e+00 6.0300000e+00 0.0000000e+00 
5.6333333e+00 5.9700000e+00 0.0000000e+00 
5.6333333e+00 5.9900000e+00 0.0000000e+00 
5.6333333e+00 6.0100000e+00 0.0000000e+00 
5.6333333e+00 6.0300000e+00 0.0000000e+00 
5.6600000e+00 5.9700000e+00 0.0000000e+00 
5.6600000e+00 5.9900000e+00 0.0000000e+00 
5.6600000e+00 6.0100000e+00 0.0000000e+00 
5.6600000e+00 6.0300000e+00 0.0000000e+00 
5.6866667e+00 5.9700000e+00 0.0000000e+00 
5.6866667e+00 5.9900000e+00 0.0000000e+00 
5.6866667e+00 6.0100000e+00 0.0000000e+00 
5.6866667e+00 6.0300000e+00 0.0000000e+00 
5.7133333e+00 5.9700000e+00 0.0000000e+00 
5.7133333e+00 5.9900000e+00 0.0000000e+00 
5.7133333e+00 6.0100000e+00 0.0000000e+00 
5.7133333e+00 6.0300000e+00 0.0000000e+00 
5.7400000e+00 5.9700000e+00 0.0000000e+00 
5.7400000e+00 5.9900000e+00 0.0000000e+00 
5.7400000e+00 6.0100000e+00 0.0000000e+00 
5.7400000e+00 6.0300000e+00 0.0000000e+00 
5.7666667e+00 5.9700000e+00 0.0000000e+00 
5.7666667e+00 5.9900000e+00 0.0000000e+00 
5.7666667e+00 6.0100000e+00 0.0000000e+00 
5.7666667e+00 6.0300000e+00 0.0000000e+00 
5.7933333e+00 5.9700000e+00 0.0000000e+00 
5.7933333e+00 5.9900000e+00 0.0000000e+00 
5.7933333e+00 6.0100000e+00 0.0000000e+00 
5.7933333e+00 6.0300000e+00 0.0000000e+00 
5.8200000e+00 5.9700000e+00 0.0000000e+00 
5.8200000e+00 5.9900000e+00 0.0000000e+00 
5.8200000e+00 6.0100000e+00 0.0000000e+00 
5.8200000e+00 6.0300000e+00 0.0000000e+00 
5.8466667e+00 5.9700000e+00 0.0000000e+00 
5.8466667e+00 5.9900000e+00 0.0000000e+00 
5.8466667e+00 6.0100000e+00 0.0000000e+00 
5.8466667e+00 6.0300000e+00 0.0000000e+00 
5.8733333e+00 5.9700000e+00 0.0000000e+00 
5.8733333e+00 5.9900000e+00 0.0000000e+00 
5.8733333e+00 6.0100000e+00 0.0000000e+00 
5.8733333e+00 6.0300000e+00 0.0000000e+00 
5.9000000e+00 5.9700000e+00 0.0000000e+00 
5.9000000e+00 5.9900000e+00 0.0000000e+00 
5.9000000e+00 6.0100000e+00 0.0000000e+00 
5.9000000e+00 6.0300000e+00 0.0000000e+00 
5.9266667e+00 5.9700000e+00 0.0000000e+00 
5.9266667e+00 5.9900000e+00 0.0000000e+00 
5.9266667e+00 6.0100000e+00 0.0000000e+00 
5.9266667e+00 6.0300000e+00 0.0000000e+00 
5.9533333e+00 5.9700000e+00 0.0000000e+00 
5.9533333e+00 5.9900000e+00 0.0000000e+00 
5.9533333e+00 6.0100000e+00 0.0000000e+00 
5.9533333e+00 6.0300000e+00 0.0000000e+00 
5.9800000e+00 5.9700000e+00 0.0000000e+00 
5.9800000e+00 5.9900000e+00 0.0000000e+00 
5.9800000e+00 6.0100000e+00 0.0000000e+00 
5.9800000e+00 6.0300000e+00 0.0000000e+00 
6.0066667e+00 5.9700000e+00 0.0000000e+00 
6.0066667e+00 5.9900000e+00 0.0000000e+00 
6.0066667e+00 6.0100000e+00 0.0000000e+00 
6.0066667e+00 6.0300000e+00 0.0000000e+00 
6.0333333e+00 5.9700000e+00 0.0000000e+00 
6.0333333e+00 5.9900000e+00 0.0000000e+00 
6.0333333e+00 6.0100000e+00 0.0000000e+00 
6.0333333e+00 6.0300000e+00 0.0000000e+00 
6.0600000e+00 5.9700000e+00 0.0000000e+00 
6.0600000e+00 5.9900000e+00 0.0000000e+00 
6.0600000e+00 6.0100000e+00 0.0000000e+00 
6.0600000e+00 6.0300000e+00 0.0000000e+00 
6.0866667e+00 5.9700000e+00 0.0000000e+00 
6.0866667e+00 5.9900000e+00 0.0000000e+00 
6.0866667e+00 6.0100000e+00 0.0000000e+00 
6.0866667e+00 6.0300000e+00 0.0000000e+00 
6.1133333e+00 5.9700000e+00 0.0000000e+00 
6.1133333e+00 5.9900000e+00 0.0000000e+00 
6.1133333e+00 6.0100000e+00 0.0000000e+00 
6.1133333e+00 6.0300000e+00 0.0000000e+00 
6.1400000e+00 5.9700000e+00 0.0000000e+00 
6.1400000e+00 5.9900000e+00 0.0000000e+00 
6.1400000e+00 6.0100000e+00 0.0000000e+00 
6.1400000e+00 6.0300000e+00 0.0000000e+00 
6.1666667e+00 5.9700000e+00 0.0000000e+00 
6.1666667e+00 5.9900000e+00 0.0000000e+00 
6.1666667e+00 6.0100000e+00 0.0000000e+00 
6.1666667e+00 6.0300000e+00 0.0000000e+00 
6.1933333e+00 5.9700000e+00 0.0000000e+00 
6.1933333e+00 5.9900000e+00 0.0000000e+00 
6.1933333e+00 6.0100000e+00 0.0000000e+00 
6.1933333e+00 6.0300000e+00 0.0000000e+00 
6.2200000e+00 5.9700000e+00 0.0000000e+00 
6.2200000e+00 5.9900000e+00 0.0000000e+00 
6.2200000e+00 6.0100000e+00 0.0000000e+00 
6.2200000e+00 6.0300000e+00 0.0000000e+00 
6.2466667e+00 5.9700000e+00 0.0000000e+00 
6.2466667e+00 5.9900000e+00 0.0000000e+00 
6.2466667e+00 6.0100000e+00 0.0000000e+00 
6.2466667e+00 6.0300000e+00 0.0000000e+00 
6.2733333e+00 5.9700000e+00 0.0000000e+00 
6.2733333e+00 5.9900000e+00 0.0000000e+00 
6.2733333e+00 6.0100000e+00 0.0000000e+00 
6.2733333e+00 6.0300000e+00 0.0000000e+00 
6.3000000e+00 5.9700000e+00 0.0000000e+00 
6.3000000e+00 5.9900000e+00 0.0000000e+00 
6.3000000e+00 6.0100000e+00 0.0000000e+00 
6.3000000e+00 6.0300000e+00 0.0000000e+00 
6.3266667e+00 5.9700000e+00 0.0000000e+00 
6.3266667e+00 5.9900000e+00 0.0000000e+00 
6.3266667e+00 6.0100000e+00 0.0000000e+00 
6.3266667e+00 6.0300000e+00 0.0000000e+00 
6.3533333e+00 5.9700000e+00 0.0000000e+00 
6.3533333e+00 5.9900000e+00 0.0000000e+00 
6.3533333e+00 6.0100000e+00 0.0000000e+00 
6.3533333e+00 6.0300000e+00 0.0000000e+00 
6.3800000e+00 5.9700000e+00 0.0000000e+00 
6.3800000e+00 5.9900000e+00 0.0000000e+00 
6.3800000e+00 6.0100000e+00 0.0000000e+00 
6.3800000e+00 6.0300000e+00 0.0000000e+00 
6.4066667e+00 5.9700000e+00 0.0000000e+00 
6.4066667e+00 5.9900000e+00 0.0000000e+00 
6.4066667e+00 6.0100000e+00 0.0000000e+00 
6.4066667e+00 6.0300000e+00 0.0000000e+00 
6.4333333e+00 5.9700000e+00 0.0000000e+00 
6.4333333e+00 5.9900000e+00 0.0000000e+00 
6.4333333e+00 6.0100000e+00 0.0000000e+00 
6.4333333e+00 6.0300000e+00 0.0000000e+00 
6.4600000e+00 5.9700000e+00 0.0000000e+00 
6.4600000e+00 5.9900000e+00 0.0000000e+00 
6.4600000e+00 6.0100000e+00 0.0000000e+00 
6.4600000e+00 6.0300000e+00 0.0000000e+00 
6.4866667e+00 5.9700000e+00 0.0000000e+00 
6.4866667e+00 5.9900000e+00 0.0000000e+00 
6.4866667e+00 6.0100000e+00 0.0000000e+00 
6.4866667e+00 6.0300000e+00 0.0000000e+00 
6.5133333e+00 5.9700000e+00 0.0000000e+00 
6.5133333e+00 5.9900000e+00 0.0000000e+00 
6.5133333e+00 6.0100000e+00 0.0000000e+00 
6.5133333e+00 6.0300000e+00 0.0000000e+00 
6.5400000e+00 5.9700000e+00 0.0000000e+00 
6.5400000e+00 5.9900000e+00 0.0000000e+00 
6.5400000e+00 6.0100000e+00 0.0000000e+00 
6.5400000e+00 6.0300000e+00 0.0000000e+00 
6.5666667e+00 5.9700000e+00 0.0000000e+00 
6.5666667e+00 5.9900000e+00 0.0000000e+00 
6.5666667e+00 6.0100000e+00 0.0000000e+00 
6.5666667e+00 6.0300000e+00 0.0000000e+00 
6.5933333e+00 5.9700000e+00 0.0000000e+00 
6.5933333e+00 5.9900000e+00 0.0000000e+00 
6.5933333e+00 6.0100000e+00 0.0000000e+00 
6.5933333e+00 6.0300000e+00 0.0000000e+00 
6.6200000e+00 5.9700000e+00 0.0000000e+00 
6.6200000e+00 5.9900000e+00 0.0000000e+00 
6.6200000e+00 6.0100000e+00 0.0000000e+00 
6.6200000e+00 6.0300000e+00 0.0000000e+00 
6.6466667e+00 5.9700000e+00 0.0000000e+00 
6.6466667e+00 5.9900000e+00 0.0000000e+00 
6.6466667e+00 6.0100000e+00 0.0000000e+00 
6.6466667e+00 6.0300000e+00 0.0000000e+00 
6.6733333e+00 5.9700000e+00 0.0000000e+00 
6.6733333e+00 5.9900000e+00 0.0000000e+00 
6.6733333e+00 6.0100000e+00 0.0000000e+00 
6.6733333e+00 6.0300000e+00 0.0000000e+00 
6.7000000e+00 5.9700000e+00 0.0000000e+00 
6.7000000e+00 5.9900000e+00 0.0000000e+00 
6.7000000e+00 6.0100000e+00 0.0000000e+00 
6.7000000e+00 6.0300000e+00 0.0000000e+00 
6.7266667e+00 5.9700000e+00 0.0000000e+00 
6.7266667e+00 5.9900000e+00 0.0000000e+00 
6.7266667e+00 6.0100000e+00 0.0000000e+00 
6.7266667e+00 6.0300000e+00 0.0000000e+00 
6.7533333e+00 5.9700000e+00 0.0000000e+00 
6.7533333e+00 5.9900000e+00 0.0000000e+00 
6.7533333e+00 6.0100000e+00 0.0000000e+00 
6.7533333e+00 6.0300000e+00 0.0000000e+00 
6.7800000e+00 5.9700000e+00 0.0000000e+00 
6.7800000e+00 5.9900000e+00 0.0000000e+00 
6.7800000e+00 6.0100000e+00 0.0000000e+00 
6.7800000e+00 6.0300000e+00 0.0000000e+00 
6.8066667e+00 5.9700000e+00 0.0000000e+00 
6.8066667e+00 5.9900000e+00 0.0000000e+00 
6.8066667e+00 6.0100000e+00 0.0000000e+00 
6.8066667e+00 6.0300000e+00 0.0000000e+00 
6.8333333e+00 5.9700000e+00 0.0000000e+00 
6.8333333e+00 5.9900000e+00 0.0000000e+00 
6.8333333e+00 6.0100000e+00 0.0000000e+00 
6.8333333e+00 6.0300000e+00 0.0000000e+00 
6.8600000e+00 5.9700000e+00 0.0000000e+00 
6.8600000e+00 5.9900000e+00 0.0000000e+00 
6.8600000e+00 6.0100000e+00 0.0000000e+00 
6.8600000e+00 6.0300000e+00 0.0000000e+00 
6.8866667e+00 5.9700000e+00 0.0000000e+00 
6.8866667e+00 5.9900000e+00 0.0000000e+00 
6.8866667e+00 6.0100000e+00 0.0000000e+00 
6.8866667e+00 6.0300000e+00 0.0000000e+00 
6.9133333e+00 5.9700000e+00 0.0000000e+00 
6.9133333e+00 5.9900000e+00 0.0000000e+00 
6.9133333e+00 6.0100000e+00 0.0000000e+00 
6.9133333e+00 6.0300000e+00 0.0000000e+00 
6.9400000e+00 5.9700000e+00 0.0000000e+00 
6.9400000e+00 5.9900000e+00 0.0000000e+00 
6.9400000e+00 6.0100000e+00 0.0000000e+00 
6.9400000e+00 6.0300000e+00 0.0000000e+00 
6.9666667e+00 5.9700000e+00 0.0000000e+00 
6.9666667e+00 5.9900000e+00 0.0000000e+00 
6.9666667e+00 6.0100000e+00 0.0000000e+00 
6.9666667e+00 6.0300000e+00 0.0000000e+00 
6.9933333e+00 5.9700000e+00 0.0000000e+00 
6.9933333e+00 5.9900000e+00 0.0000000e+00 
6.9933333e+00 6.0100000e+00 0.0000000e+00 
6.9933333e+00 6.0300000e+00 0.0000000e+00 
7.0200000e+00 5.9700000e+00 0.0000000e+00 
7.0200000e+00 5.9900000e+00 0.0000000e+00 
[...]
POINT_DATA 604
FIELD FieldData 2
DISPLACEMENT 3 604  float
0.0000000e+00 0.0000000e+00 0.0000000e+00 
0.0000000e+00 0.0000000e+00 0.0000000e+00 
5.6658195e-05 3.3016031e-05 0.0000000e+00 
1.8284862e-05 2.0940266e-05 0.0000000e+00 
0.0000000e+00 0.0000000e+00 0.0000000e+00 
-1.7966151e-05 2.0843771e-05 0.0000000e+00 
1.1534582e-04 1.0800450e-04 0.0000000e+00 
3.8774274e-05 9.7713727e-05 0.0000000e+00 
0.0000000e+00 0.0000000e+00 0.0000000e+00 
-5.6331922e-05 3.2727414e-05 0.0000000e+00 
-3.8280812e-05 9.7486902e-05 0.0000000e+00 
1.7414655e-04 2.3681140e-04 0.0000000e+00 
-1.1492049e-04 1.0735864e-04 0.0000000e+00 
5.8165246e-05 2.2607219e-04 0.0000000e+00 
-5.7902112e-05 2.2566185e-04 0.0000000e+00 
-1.7400476e-04 2.3560445e-04 0.0000000e+00 
2.3276891e-04 4.1803431e-04 0.0000000e+00 
7.7444799e-05 4.0702530e-04 0.0000000e+00 
-7.8027195e-05 4.0634819e-04 0.0000000e+00 
-2.3351221e-04 4.1602678e-04 0.0000000e+00 
2.9112897e-04 6.5197790e-04 0.0000000e+00 
9.6346477e-05 6.4059772e-04 0.0000000e+00 
-9.8591671e-05 6.3957460e-04 0.0000000e+00 
-2.9357593e-04 6.4893281e-04 0.0000000e+00 
3.4909888e-04 9.3874384e-04 0.0000000e+00 
1.1477766e-04 9.2691890e-04 0.0000000e+00 
-1.1971281e-04 9.2547099e-04 0.0000000e+00 
-3.5427739e-04 9.3442457e-04 0.0000000e+00 
4.0655645e-04 1.2784368e-03 0.0000000e+00 
1.3262518e-04 1.2660907e-03 0.0000000e+00 
-1.4148852e-04 1.2641389e-03 0.0000000e+00 
-4.1570491e-04 1.2726057e-03 0.0000000e+00 
4.6337819e-04 1.6711441e-03 0.0000000e+00 
1.4977745e-04 1.6582007e-03 0.0000000e+00 
-1.6401894e-04 1.6556654e-03 0.0000000e+00 
-4.7794666e-04 1.6635629e-03 0.0000000e+00 
5.1944037e-04 2.1169377e-03 0.0000000e+00 
1.6612249e-04 2.1033202e-03 0.0000000e+00 
-1.8740431e-04 2.1001220e-03 0.0000000e+00 
-5.4109103e-04 2.1073673e-03 0.0000000e+00 
5.7461917e-04 2.6158733e-03 0.0000000e+00 
1.8154817e-04 2.6015052e-03 0.0000000e+00 
-2.1174499e-04 2.5975643e-03 0.0000000e+00 
-6.0522675e-04 2.6040749e-03 0.0000000e+00 
6.2879063e-04 3.1679911e-03 0.0000000e+00 
1.9594233e-04 3.1527958e-03 0.0000000e+00 
-2.3714140e-04 3.1480326e-03 0.0000000e+00 
-6.7044229e-04 3.1537256e-03 0.0000000e+00 
6.8183107e-04 3.7733154e-03 0.0000000e+00 
2.0919291e-04 3.7572164e-03 0.0000000e+00 
-2.6369382e-04 3.7515515e-03 0.0000000e+00 
-7.3682636e-04 3.7563442e-03 0.0000000e+00 
7.3361679e-04 4.4318546e-03 0.0000000e+00 
2.2118807e-04 4.4147758e-03 0.0000000e+00 
-2.9150233e-04 4.4081297e-03 0.0000000e+00 
-8.0446703e-04 4.4119398e-03 0.0000000e+00 
7.8402452e-04 5.1436013e-03 0.0000000e+00 
2.3181628e-04 5.1254667e-03 0.0000000e+00 
-3.2066658e-04 5.1177606e-03 0.0000000e+00 
-8.7345227e-04 5.1205059e-03 0.0000000e+00 
8.3293133e-04 5.9085321e-03 0.0000000e+00 
2.4096650e-04 5.8892662e-03 0.0000000e+00 
-3.5128580e-04 5.8804216e-03 0.0000000e+00 
-9.4386924e-04 5.8820204e-03 0.0000000e+00 
8.8021496e-04 6.7266077e-03 0.0000000e+00 
2.4852825e-04 6.7061356e-03 0.0000000e+00 
-3.8345857e-04 6.6960743e-03 0.0000000e+00 
-1.0158048e-03 6.6964454e-03 0.0000000e+00 
9.2575378e-04 7.5977729e-03 0.0000000e+00 
2.5439180e-04 7.5760202e-03 0.0000000e+00 
-4.1728275e-04 7.5646648e-03 0.0000000e+00 
-1.0893448e-03 7.5637275e-03 0.0000000e+00 
9.6942692e-04 8.5219563e-03 0.0000000e+00 
2.5844822e-04 8.4988493e-03 0.0000000e+00 
-4.5285531e-04 8.4861229e-03 0.0000000e+00 
-1.1645742e-03 8.4837974e-03 0.0000000e+00 
1.0111145e-03 9.4990705e-03 0.0000000e+00 
2.6058957e-04 9.4745363e-03 0.0000000e+00 
-4.9027221e-04 9.4603630e-03 0.0000000e+00 
-1.2415772e-03 9.4565700e-03 0.0000000e+00 
1.0506977e-03 1.0529012e-02 0.0000000e+00 
2.6070897e-04 1.0502978e-02 0.0000000e+00 
-5.2962829e-04 1.0487283e-02 0.0000000e+00 
-1.3204363e-03 1.0481944e-02 0.0000000e+00 
1.0880587e-03 1.1611661e-02 0.0000000e+00 
2.5870076e-04 1.1584057e-02 0.0000000e+00 
-5.7101712e-04 1.1566766e-02 0.0000000e+00 
-1.4012331e-03 1.1559804e-02 0.0000000e+00 
1.1230811e-03 1.2746881e-02 0.0000000e+00 
2.5446065e-04 1.2717637e-02 0.0000000e+00 
-6.1453091e-04 1.2698676e-02 0.0000000e+00 
-1.4840474e-03 1.2690015e-02 0.0000000e+00 
1.1556501e-03 1.3934520e-02 0.0000000e+00 
2.4788584e-04 1.3903567e-02 0.0000000e+00 
-6.6026038e-04 1.3882865e-02 0.0000000e+00 
-1.5689583e-03 1.3872429e-02 0.0000000e+00 
1.1856525e-03 1.5174409e-02 0.0000000e+00 
2.3887520e-04 1.5141680e-02 0.0000000e+00 
-7.0829476e-04 1.5119166e-02 0.0000000e+00 
-1.6560424e-03 1.5106882e-02 0.0000000e+00 
1.2129773e-03 1.6466364e-02 0.0000000e+00 
2.2732927e-04 1.6431792e-02 0.0000000e+00 
-7.5872145e-04 1.6407397e-02 0.0000000e+00 
-1.7453759e-03 1.6393192e-02 0.0000000e+00 
1.2375146e-03 1.7810184e-02 0.0000000e+00 
2.1315049e-04 1.7773704e-02 0.0000000e+00 
-8.1162612e-04 1.7747361e-02 0.0000000e+00 
-1.8370319e-03 1.7731163e-02 0.0000000e+00 
1.2591569e-03 1.9205652e-02 0.0000000e+00 
1.9624321e-04 1.9167202e-02 0.0000000e+00 
-8.6709232e-04 1.9138843e-02 0.0000000e+00 
-1.9310823e-03 1.9120584e-02 0.0000000e+00 
1.2777986e-03 2.0652535e-02 0.0000000e+00 
1.7651389e-04 2.0612053e-02 0.0000000e+00 
-9.2520166e-04 2.0581613e-02 0.0000000e+00 
-2.0275962e-03 2.0561225e-02 0.0000000e+00 
1.2933365e-03 2.2150585e-02 0.0000000e+00 
1.5387119e-04 2.2108010e-02 0.0000000e+00 
-9.8603339e-04 2.2075427e-02 0.0000000e+00 
-2.1266413e-03 2.2052843e-02 0.0000000e+00 
1.3056695e-03 2.3699535e-02 0.0000000e+00 
1.2822613e-04 2.3654810e-02 0.0000000e+00 
-1.0496646e-03 2.3620023e-02 0.0000000e+00 
-2.2282824e-03 2.3595179e-02 0.0000000e+00 
1.3146992e-03 2.5299105e-02 0.0000000e+00 
9.9492076e-05 2.5252173e-02 0.0000000e+00 
-1.1161699e-03 2.5215122e-02 0.0000000e+00 
-2.3325821e-03 2.5187955e-02 0.0000000e+00 
1.3203298e-03 2.6948997e-02 0.0000000e+00 
6.7585104e-05 2.6899803e-02 0.0000000e+00 
-1.1856214e-03 2.6860431e-02 0.0000000e+00 
-2.4396009e-03 2.6830880e-02 0.0000000e+00 
1.3224679e-03 2.8648897e-02 0.0000000e+00 
3.2423903e-05 2.8597390e-02 0.0000000e+00 
-1.2580886e-03 2.8555641e-02 0.0000000e+00 
-2.5493960e-03 2.8523649e-02 0.0000000e+00 
1.3210234e-03 3.0398477e-02 0.0000000e+00 
-6.0701067e-06 3.0344606e-02 0.0000000e+00 
-1.3336380e-03 3.0300427e-02 0.0000000e+00 
-2.6620225e-03 3.0265936e-02 0.0000000e+00 
1.3159086e-03 3.2197391e-02 0.0000000e+00 
-4.7972655e-05 3.2141108e-02 0.0000000e+00 
-1.4123336e-03 3.2094448e-02 0.0000000e+00 
-2.7775322e-03 3.2057404e-02 0.0000000e+00 
1.3070387e-03 3.4045278e-02 0.0000000e+00 
-9.3356483e-05 3.3986538e-02 0.0000000e+00 
-1.4942360e-03 3.3937347e-02 0.0000000e+00 
-2.8959736e-03 3.3897698e-02 0.0000000e+00 
1.2943321e-03 3.5941760e-02 0.0000000e+00 
-1.4229120e-04 3.5880519e-02 0.0000000e+00 
-1.5794031e-03 3.5828751e-02 0.0000000e+00 
-3.0173926e-03 3.5786448e-02 0.0000000e+00 
1.2777108e-03 3.7886445e-02 0.0000000e+00 
-1.9484323e-04 3.7822661e-02 0.0000000e+00 
-1.6678894e-03 3.7768273e-02 0.0000000e+00 
-3.1418323e-03 3.7723268e-02 0.0000000e+00 
1.2571001e-03 3.9878923e-02 0.0000000e+00 
-2.5107554e-04 3.9812559e-02 0.0000000e+00 
-1.7597466e-03 3.9755507e-02 0.0000000e+00 
-3.2693324e-03 3.9707756e-02 0.0000000e+00 
1.2324293e-03 4.1918771e-02 0.0000000e+00 
-3.1104788e-04 4.1849789e-02 0.0000000e+00 
-1.8550227e-03 4.1790036e-02 0.0000000e+00 
-3.3999300e-03 4.1739496e-02 0.0000000e+00 
1.2036303e-03 4.4005547e-02 0.0000000e+00 
-3.7481645e-04 4.3933915e-02 0.0000000e+00 
-1.9537627e-03 4.3871424e-02 0.0000000e+00 
-3.5336581e-03 4.3818056e-02 0.0000000e+00 
1.1706391e-03 4.6138799e-02 0.0000000e+00 
-4.4243407e-04 4.6064485e-02 0.0000000e+00 
-2.0560076e-03 4.5999221e-02 0.0000000e+00 
-3.6705466e-03 4.5942988e-02 0.0000000e+00 
1.1333948e-03 4.8318054e-02 0.0000000e+00 
-5.1394983e-04 4.8241030e-02 0.0000000e+00 
-2.1617952e-03 4.8172964e-02 0.0000000e+00 
-3.8106214e-03 4.8113831e-02 0.0000000e+00 
1.0918408e-03 5.0542828e-02 0.0000000e+00 
-5.8940925e-04 5.0463069e-02 0.0000000e+00 
-2.2711595e-03 5.0392171e-02 0.0000000e+00 
-3.9539053e-03 5.0330107e-02 0.0000000e+00 
1.0459236e-03 5.2812618e-02 0.0000000e+00 
-6.6885393e-04 5.2730102e-02 0.0000000e+00 
-2.3841307e-03 5.2656346e-02 0.0000000e+00 
-4.1004170e-03 5.2591324e-02 0.0000000e+00 
9.9559448e-04 5.5126909e-02 0.0000000e+00 
-7.5232179e-04 5.5041616e-02 0.0000000e+00 
-2.5007354e-03 5.4964981e-02 0.0000000e+00 
-4.2501715e-03 5.4896974e-02 0.0000000e+00 
9.4080827e-04 5.7485169e-02 0.0000000e+00 
-8.3984662e-04 5.7397082e-02 0.0000000e+00 
-2.6209961e-03 5.7317547e-02 0.0000000e+00 
-4.4031804e-03 5.7246533e-02 0.0000000e+00 
8.8152360e-04 5.9886851e-02 0.0000000e+00 
-9.3145827e-04 5.9795956e-02 0.0000000e+00 
-2.7449315e-03 5.9713505e-02 0.0000000e+00 
-4.5594509e-03 5.9639464e-02 0.0000000e+00 
8.1770373e-04 6.2331394e-02 0.0000000e+00 
-1.0271827e-03 6.2237680e-02 0.0000000e+00 
-2.8725562e-03 6.2152300e-02 0.0000000e+00 
-4.7189865e-03 6.2075214e-02 0.0000000e+00 
7.4931542e-04 6.4818220e-02 0.0000000e+00 
-1.1270415e-03 6.4721680e-02 0.0000000e+00 
-3.0038807e-03 6.4633360e-02 0.0000000e+00 
-4.8817865e-03 6.4553217e-02 0.0000000e+00 
6.7633038e-04 6.7346739e-02 0.0000000e+00 
-1.2310524e-03 6.7247369e-02 0.0000000e+00 
-3.1389117e-03 6.7156100e-02 0.0000000e+00 
-5.0478465e-03 6.7072890e-02 0.0000000e+00 
5.9872393e-04 6.9916343e-02 0.0000000e+00 
-1.3392288e-03 6.9814141e-02 0.0000000e+00 
-3.2776513e-03 6.9719920e-02 0.0000000e+00 
-5.2171578e-03 6.9633635e-02 0.0000000e+00 
5.1647557e-04 7.2526412e-02 0.0000000e+00 
-1.4515798e-03 7.2421379e-02 0.0000000e+00 
-3.4200976e-03 7.2324205e-02 0.0000000e+00 
-5.3897065e-03 7.2234842e-02 0.0000000e+00 
4.2956963e-04 7.5176309e-02 0.0000000e+00 
-1.5681102e-03 7.5068451e-02 0.0000000e+00 
-3.5662445e-03 7.4968326e-02 0.0000000e+00 
-5.5654758e-03 7.4875883e-02 0.0000000e+00 
3.3799532e-04 7.7865382e-02 0.0000000e+00 
-1.6888203e-03 7.7754707e-02 0.0000000e+00 
-3.7160815e-03 7.7651636e-02 0.0000000e+00 
-5.7444449e-03 7.7556116e-02 0.0000000e+00 
2.4174599e-04 8.0592968e-02 0.0000000e+00 
-1.8137058e-03 8.0479486e-02 0.0000000e+00 
-3.8695943e-03 8.0373478e-02 0.0000000e+00 
-5.9265886e-03 8.0274887e-02 0.0000000e+00 
1.4082140e-04 8.3358388e-02 0.0000000e+00 
-1.9427582e-03 8.3242114e-02 0.0000000e+00 
-4.0267643e-03 8.3133181e-02 0.0000000e+00 
-6.1118795e-03 8.3031528e-02 0.0000000e+00 
3.5224040e-05 8.6160950e-02 0.0000000e+00 
-2.0759646e-03 8.6041902e-02 0.0000000e+00 
-4.1875690e-03 8.5930059e-02 0.0000000e+00 
-6.3002845e-03 8.5825357e-02 0.0000000e+00 
-7.5038284e-05 8.8999951e-02 0.0000000e+00 
-2.2133077e-03 8.8878150e-02 0.0000000e+00 
-4.3519812e-03 8.8763414e-02 0.0000000e+00 
-6.4917671e-03 8.8655678e-02 0.0000000e+00 
-1.8995369e-04 9.1874674e-02 0.0000000e+00 
-2.3547658e-03 9.1750143e-02 0.0000000e+00 
-4.5199699e-03 9.1632536e-02 0.0000000e+00 
-6.6862866e-03 9.1521785e-02 0.0000000e+00 
-3.0950479e-04 9.4784388e-02 0.0000000e+00 
-2.5003126e-03 9.4657154e-02 0.0000000e+00 
-4.6915001e-03 9.4536701e-02 0.0000000e+00 
-6.8837988e-03 9.4422958e-02 0.0000000e+00 
-4.3366928e-04 9.7728352e-02 0.0000000e+00 
-2.6499176e-03 9.7598445e-02 0.0000000e+00 
-4.8665325e-03 9.7475173e-02 0.0000000e+00 
-7.0842563e-03 9.7358463e-02 0.0000000e+00 
-5.6242061e-04 1.0070582e-01 0.0000000e+00 
-2.8035459e-03 1.0057327e-01 0.0000000e+00 
-5.0450243e-03 1.0044721e-01 0.0000000e+00 
-7.2876080e-03 1.0032756e-01 0.0000000e+00 
-6.9572687e-04 1.0371601e-01 0.0000000e+00 
-2.9611582e-03 1.0358086e-01 0.0000000e+00 
-5.2269286e-03 1.0345205e-01 0.0000000e+00 
-7.4937999e-03 1.0332949e-01 0.0000000e+00 
-8.3355217e-04 1.0675818e-01 0.0000000e+00 
-3.1227114e-03 1.0662046e-01 0.0000000e+00 
-5.4121948e-03 1.0648893e-01 0.0000000e+00 
-7.7027743e-03 1.0636350e-01 0.0000000e+00 
-9.7585622e-04 1.0983152e-01 0.0000000e+00 
-3.2881578e-03 1.0969128e-01 0.0000000e+00 
-5.6007687e-03 1.0955707e-01 0.0000000e+00 
-7.9144690e-03 1.0942881e-01 0.0000000e+00 
-1.1225936e-03 1.1293526e-01 0.0000000e+00 
-3.4574460e-03 1.1279253e-01 0.0000000e+00 
-5.7925925e-03 1.1265569e-01 0.0000000e+00 
-8.1288206e-03 1.1252463e-01 0.0000000e+00 
-1.2737143e-03 1.1606858e-01 0.0000000e+00 
-3.6305204e-03 1.1592343e-01 0.0000000e+00 
-5.9876051e-03 1.1578399e-01 0.0000000e+00 
-8.3457622e-03 1.1565019e-01 0.0000000e+00 
-1.4291640e-03 1.1923070e-01 0.0000000e+00 
-3.8073215e-03 1.1908316e-01 0.0000000e+00 
-6.1857424e-03 1.1894118e-01 0.0000000e+00 
-8.5652249e-03 1.1880467e-01 0.0000000e+00 
-1.5888825e-03 1.2242080e-01 0.0000000e+00 
-3.9877862e-03 1.2227092e-01 0.0000000e+00 
-6.3869373e-03 1.2212644e-01 0.0000000e+00 
-8.7871391e-03 1.2198728e-01 0.0000000e+00 
-1.7528069e-03 1.2563805e-01 0.0000000e+00 
-4.1718480e-03 1.2548589e-01 0.0000000e+00 
-6.5911203e-03 1.2533898e-01 0.0000000e+00 
-9.0114311e-03 1.2519722e-01 0.0000000e+00 
-1.9208706e-03 1.2888166e-01 0.0000000e+00 
-4.3594370e-03 1.2872727e-01 0.0000000e+00 
-6.7982184e-03 1.2857796e-01 0.0000000e+00 
-9.2380252e-03 1.2843366e-01 0.0000000e+00 
-2.0930027e-03 1.3215078e-01 0.0000000e+00 
-4.5504802e-03 1.3199422e-01 0.0000000e+00 
-7.0081564e-03 1.3184259e-01 0.0000000e+00 
-9.4668440e-03 1.3169579e-01 0.0000000e+00 
-2.2691286e-03 1.3544460e-01 0.0000000e+00 
-4.7449013e-03 1.3528593e-01 0.0000000e+00 
-7.2208566e-03 1.3513203e-01 0.0000000e+00 
-9.6978080e-03 1.3498279e-01 0.0000000e+00 
-2.4491701e-03 1.3876230e-01 0.0000000e+00 
-4.9426217e-03 1.3860158e-01 0.0000000e+00 
-7.4362391e-03 1.3844546e-01 0.0000000e+00 
-9.9308368e-03 1.3829385e-01 0.0000000e+00 
-2.6330459e-03 1.4210303e-01 0.0000000e+00 
-5.1435590e-03 1.4194033e-01 0.0000000e+00 
-7.6542223e-03 1.4178206e-01 0.0000000e+00 
-1.0165848e-02 1.4162815e-01 0.0000000e+00 
-2.8206701e-03 1.4546599e-01 0.0000000e+00 
-5.3476291e-03 1.4530136e-01 0.0000000e+00 
-7.8747225e-03 1.4514101e-01 0.0000000e+00 
-1.0402760e-02 1.4498484e-01 0.0000000e+00 
-3.0119540e-03 1.4885034e-01 0.0000000e+00 
-5.5547451e-03 1.4868385e-01 0.0000000e+00 
-8.0976552e-03 1.4852148e-01 0.0000000e+00 
-1.0641491e-02 1.4836314e-01 0.0000000e+00 
-3.2068063e-03 1.5225527e-01 0.0000000e+00 
-5.7648185e-03 1.5208699e-01 0.0000000e+00 
-8.3229343e-03 1.5192266e-01 0.0000000e+00 
-1.0881956e-02 1.5176220e-01 0.0000000e+00 
-3.4051331e-03 1.5567996e-01 0.0000000e+00 
-5.9777588e-03 1.5550995e-01 0.0000000e+00 
-8.5504729e-03 1.5534374e-01 0.0000000e+00 
-1.1124072e-02 1.5518123e-01 0.0000000e+00 
-3.6068383e-03 1.5912360e-01 0.0000000e+00 
-6.1934738e-03 1.5895193e-01 0.0000000e+00 
-8.7801829e-03 1.5878390e-01 0.0000000e+00 
-1.1367756e-02 1.5861941e-01 0.0000000e+00 
-3.8118237e-03 1.6258539e-01 0.0000000e+00 
-6.4118704e-03 1.6241212e-01 0.0000000e+00 
-9.0119760e-03 1.6224234e-01 0.0000000e+00 
-1.1612925e-02 1.6207595e-01 0.0000000e+00 
-4.0199899e-03 1.6606453e-01 0.0000000e+00 
-6.6328539e-03 1.6588973e-01 0.0000000e+00 
-9.2457629e-03 1.6571827e-01 0.0000000e+00 
-1.1859492e-02 1.6555004e-01 0.0000000e+00 
-4.2312350e-03 1.6956024e-01 0.0000000e+00 
-6.8563289e-03 1.6938398e-01 0.0000000e+00 
-9.4814541e-03 1.6921090e-01 0.0000000e+00 
-1.2107377e-02 1.6904090e-01 0.0000000e+00 
-4.4454555e-03 1.7307172e-01 0.0000000e+00 
-7.0821989e-03 1.7289407e-01 0.0000000e+00 
-9.7189607e-03 1.7271945e-01 0.0000000e+00 
-1.2356497e-02 1.7254776e-01 0.0000000e+00 
-4.6625466e-03 1.7659821e-01 0.0000000e+00 
-7.3103672e-03 1.7641924e-01 0.0000000e+00 
-9.9581939e-03 1.7624314e-01 0.0000000e+00 
-1.2606770e-02 1.7606983e-01 0.0000000e+00 
-4.8824017e-03 1.8013896e-01 0.0000000e+00 
-7.5407366e-03 1.7995873e-01 0.0000000e+00 
-1.0199066e-02 1.7978123e-01 0.0000000e+00 
-1.2858119e-02 1.7960637e-01 0.0000000e+00 
-5.1049147e-03 1.8369323e-01 0.0000000e+00 
-7.7732107e-03 1.8351180e-01 0.0000000e+00 
-1.0441489e-02 1.8333296e-01 0.0000000e+00 
-1.3110468e-02 1.8315662e-01 0.0000000e+00 
-5.3299792e-03 1.8726027e-01 0.0000000e+00 
-8.0076926e-03 1.8707772e-01 0.0000000e+00 
-1.0685378e-02 1.8689761e-01 0.0000000e+00 
-1.3363738e-02 1.8671986e-01 0.0000000e+00 
-5.5574886e-03 1.9083937e-01 0.0000000e+00 
-8.2440868e-03 1.9065576e-01 0.0000000e+00 
-1.0930646e-02 1.9047446e-01 0.0000000e+00 
-1.3617856e-02 1.9029537e-01 0.0000000e+00 
-5.7873365e-03 1.9442984e-01 0.0000000e+00 
-8.4822974e-03 1.9424523e-01 0.0000000e+00 
-1.1177210e-02 1.9406279e-01 0.0000000e+00 
-1.3872747e-02 1.9388244e-01 0.0000000e+00 
-6.0194161e-03 1.9803097e-01 0.0000000e+00 
-8.7222298e-03 1.9784543e-01 0.0000000e+00 
-1.1424987e-02 1.9766192e-01 0.0000000e+00 
-1.4128342e-02 1.9748037e-01 0.0000000e+00 
-6.2536210e-03 2.0164212e-01 0.0000000e+00 
-8.9637909e-03 2.0145570e-01 0.0000000e+00 
-1.1673896e-02 2.0127119e-01 0.0000000e+00 
-1.4384574e-02 2.0108851e-01 0.0000000e+00 
-6.4898458e-03 2.0526261e-01 0.0000000e+00 
-9.2068880e-03 2.0507538e-01 0.0000000e+00 
-1.1923858e-02 2.0488993e-01 0.0000000e+00 
-1.4641375e-02 2.0470618e-01 0.0000000e+00 
-6.7279861e-03 2.0889182e-01 0.0000000e+00 
-9.4514309e-03 2.0870383e-01 0.0000000e+00 
-1.2174796e-02 2.0851751e-01 0.0000000e+00 
-1.4898685e-02 2.0833276e-01 0.0000000e+00 
-6.9679395e-03 2.1252913e-01 0.0000000e+00 
-9.6973305e-03 2.1234045e-01 0.0000000e+00 
-1.2426636e-02 2.1215331e-01 0.0000000e+00 
-1.5156439e-02 2.1196763e-01 0.0000000e+00 
-7.2096040e-03 2.1617395e-01 0.0000000e+00 
-9.9444995e-03 2.1598462e-01 0.0000000e+00 
-1.2679304e-02 2.1579672e-01 0.0000000e+00 
-1.5414582e-02 2.1561018e-01 0.0000000e+00 
-7.4528791e-03 2.1982570e-01 0.0000000e+00 
-1.0192852e-02 2.1963578e-01 0.0000000e+00 
-1.2932731e-02 2.1944718e-01 0.0000000e+00 
-1.5673056e-02 2.1925983e-01 0.0000000e+00 
-7.6976658e-03 2.2348382e-01 0.0000000e+00 
-1.0442306e-02 2.2329337e-01 0.0000000e+00 
-1.3186848e-02 2.2310412e-01 0.0000000e+00 
-1.5931811e-02 2.2291602e-01 0.0000000e+00 
-7.9438669e-03 2.2714778e-01 0.0000000e+00 
-1.0692780e-02 2.2695684e-01 0.0000000e+00 
-1.3441592e-02 2.2676701e-01 0.0000000e+00 
-1.6190800e-02 2.2657821e-01 0.0000000e+00 
-8.1913880e-03 2.3081708e-01 0.0000000e+00 
-1.0944196e-02 2.3062569e-01 0.0000000e+00 
-1.3696900e-02 2.3043532e-01 0.0000000e+00 
-1.6449977e-02 2.3024589e-01 0.0000000e+00 
-8.4401375e-03 2.3449121e-01 0.0000000e+00 
-1.1196479e-02 2.3429943e-01 0.0000000e+00 
-1.3952714e-02 2.3410857e-01 0.0000000e+00 
-1.6709299e-02 2.3391856e-01 0.0000000e+00 
-8.6900263e-03 2.3816972e-01 0.0000000e+00 
-1.1449555e-02 2.3797758e-01 0.0000000e+00 
-1.4208977e-02 2.3778628e-01 0.0000000e+00 
-1.6968725e-02 2.3759574e-01 0.0000000e+00 
-8.9409678e-03 2.4185215e-01 0.0000000e+00 
-1.1703356e-02 2.4165970e-01 0.0000000e+00 
-1.4465635e-02 2.4146800e-01 0.0000000e+00 
-1.7228219e-02 2.4127698e-01 0.0000000e+00 
-9.1928783e-03 2.4553809e-01 0.0000000e+00 
-1.1957813e-02 2.4534537e-01 0.0000000e+00 
-1.4722638e-02 2.4515331e-01 0.0000000e+00 
-1.7487746e-02 2.4496185e-01 0.0000000e+00 
-9.4456773e-03 2.4922712e-01 0.0000000e+00 
-1.2212862e-02 2.4903417e-01 0.0000000e+00 
-1.4979938e-02 2.4884179e-01 0.0000000e+00 
-1.7747276e-02 2.4864995e-01 0.0000000e+00 
-9.6992869e-03 2.5291888e-01 0.0000000e+00 
-1.2468442e-02 2.5272572e-01 0.0000000e+00 
-1.5237490e-02 2.5253308e-01 0.0000000e+00 
-1.8006779e-02 2.5234089e-01 0.0000000e+00 
-9.9536325e-03 2.5661301e-01 0.0000000e+00 
-1.2724495e-02 2.5641968e-01 0.0000000e+00 
-1.5495252e-02 2.5622679e-01 0.0000000e+00 
-1.8266229e-02 2.5603430e-01 0.0000000e+00 
-1.0208643e-02 2.6030916e-01 0.0000000e+00 
-1.2980966e-02 2.6011569e-01 0.0000000e+00 
-1.5753185e-02 2.5992260e-01 0.0000000e+00 
-1.8525605e-02 2.5972985e-01 0.0000000e+00 
-1.0464249e-02 2.6400702e-01 0.0000000e+00 
-1.3237801e-02 2.6381344e-01 0.0000000e+00 
-1.6011252e-02 2.6362018e-01 0.0000000e+00 
-1.8784886e-02 2.6342720e-01 0.0000000e+00 
-1.0720387e-02 2.6770631e-01 0.0000000e+00 
-1.3494953e-02 2.6751264e-01 0.0000000e+00 
-1.6269420e-02 2.6731924e-01 0.0000000e+00 
-1.9044053e-02 2.6712607e-01 0.0000000e+00 
-1.0976995e-02 2.7140674e-01 0.0000000e+00 
-1.3752374e-02 2.7121302e-01 0.0000000e+00 
-1.6527658e-02 2.7101950e-01 0.0000000e+00 
-1.9303091e-02 2.7082616e-01 0.0000000e+00 
-1.1234013e-02 2.7510807e-01 0.0000000e+00 
-1.4010021e-02 2.7491430e-01 0.0000000e+00 
-1.6785938e-02 2.7472070e-01 0.0000000e+00 