# vtk DataFile Version 4.0
vtk output
ASCII
DATASET UNSTRUCTURED_GRID
POINTS 604 float
5.5000000e+00 5.9700000e+00 0.0000000e+00 
5.5000000e+00 5.9900000e+00 0.0000000e+00 
5.5266667e+00 5.9700000e+00 0.0000000e+00 
5.5266667e+00 5.9900000e+00 0.0000000e+00 
5.5000000e+00 6.0100000e+00 0.0000000e+00 
5.5266667e+00 6.0100000e+00 0.0000000e+00 
5.5533333e+00 5.9700000e+00 0.0000000e+00 
5.5533333e+00 5.9900000e+00 0.0000000e+00 
5.5000000e+00 6.0300000e+00 0.0000000e+00 
5.5266667e+00 6.0300000e+00 0.0000000e+00 
5.5533333e+00 6.0100000e+00 0.0000000e+00 
5.5800000e+00 5.9700000e+00 0.0000000e+00 
5.5533333e+00 6.0300000e+00 0.0000000e+00 
5.5800000e+00 5.9900000e+00 0.0000000e+00 
5.5800000e+00 6.0100000e+00 0.0000000e+00 
5.5800000e+00 6.0300000e+00 0.0000000e+00 
5.6066667e+00 5.9700000e+00 0.0000000e+00 
5.6066667e+00 5.9900000e+00 0.0000000e+00 
5.6066667e+00 6.0100000e+00 0.0000000e+00 
5.6066667e+00 6.0300000e+00 0.0000000e+00 
5.6333333e+00 5.9700000e+00 0.0000000e+00 
5.6333333e+00 5.9900000e+00 0.0000000e+00 
5.6333333e+00 6.0100000e+00 0.0000000e+00 
5.6333333e+00 6.0300000e+00 0.0000000e+00 
5.6600000e+00 5.9700000e+00 0.0000000e+00 
5.6600000e+00 5.9900000e+00 0.0000000e+00 
5.6600000e+00 6.0100000e+00 0.0000000e+00 
5.6600000e+00 6.0300000e+00 0.0000000e+00 
5.6866667e+00 5.9700000e+00 0.0000000e+00 
5.6866667e+00 5.9900000e+00 0.0000000e+00 
5.6866667e+00 6.0100000e+00 0.0000000e+00 
5.6866667e+00 6.0300000e+00 0.0000000e+00 
5.7133333e+00 5.9700000e+00 0.0000000e+00 
5.7133333e+00 5.9900000e+00 0.0000000e+00 
5.7133333e+00 6.0100000e+00 0.0000000e+00 
5.7133333e+00 6.0300000e+00 0.0000000e+00 
5.7400000e+00 5.9700000e+00 0.0000000e+00 
5.7400000e+00 5.9900000e+00 0.0000000e+00 
5.7400000e+00 6.0100000e+00 0.0000000e+00 
5.7400000e+00 6.0300000e+00 0.0000000e+00 
5.7666667e+00 5.9700000e+00 0.0000000e+00 
5.7666667e+00 5.9900000e+00 0.0000000e+00 
5.7666667e+00 6.0100000e+00 0.0000000e+00 
5.7666667e+00 6.0300000e+00 0.0000000e+00 
5.7933333e+00 5.9700000e+00 0.0000000e+00 
5.7933333e+00 5.9900000e+00 0.0000000e+00 
5.7933333e+00 6.0100000e+00 0.0000000e+00 
5.7933333e+00 6.0300000e+00 0.0000000e+00 
5.8200000e+00 5.9700000e+00 0.0000000e+00 
5.8200000e+00 5.9900000e+00 0.0000000e+00 
5.8200000e+00 6.0100000e+00 0.0000000e+00 
5.8200000e+00 6.0300000e+00 0.0000000e+00 
5.8466667e+00 5.9700000e+00 0.0000000e+00 
5.8466667e+00 5.9900000e+00 0.0000000e+00 
5.8466667e+00 6.0100000e+00 0.0000000e+00 
5.8466667e+00 6.0300000e+00 0.0000000e+00 
5.8733333e+00 5.9700000e+00 0.0000000e+00 
5.8733333e+00 5.9900000e+00 0.0000000e+00 
5.8733333e+00 6.0100000e+00 0.0000000e+00 
5.8733333e+00 6.0300000e+00 0.0000000e+00 
5.9000000e+00 5.9700000e+00 0.0000000e+00 
5.9000000e+00 5.9900000e+00 0.0000000e+00 
5.9000000e+00 6.0100000e+00 0.0000000e+00 
5.9000000e+00 6.0300000e+00 0.0000000e+00 
5.9266667e+00 5.9700000e+00 0.0000000e+00 
5.9266667e+00 5.9900000e+00 0.0000000e+00 
5.9266667e+00 6.0100000e+00 0.0000000e+00 
5.9266667e+00 6.0300000e+00 0.0000000e+00 
5.9533333e+00 5.9700000e+00 0.0000000e+00 
5.9533333e+00 5.9900000e+00 0.0000000e+00 
5.9533333e+00 6.0100000e+00 0.0000000e+00 
5.9533333e+00 6.0300000e+00 0.0000000e+00 
5.9800000e+00 5.9700000e+00 0.0000000e+00 
5.9800000e+00 5.9900000e+00 0.0000000e+00 
5.9800000e+00 6.0100000e+00 0.0000000e+00 
5.9800000e+00 6.0300000e+00 0.0000000e+00 
6.0066667e+00 5.9700000e+00 0.0000000e+00 
6.0066667e+00 5.9900000e+00 0.0000000e+00 
6.0066667e+00 6.0100000e+00 0.0000000e+00 
6.0066667e+00 6.0300000e+00 0.0000000e+00 
6.0333333e+00 5.9700000e+00 0.0000000e+00 
6.0333333e+00 5.9900000e+00 0.0000000e+00 
6.0333333e+00 6.0100000e+00 0.0000000e+00 
6.0333333e+00 6.0300000e+00 0.0000000e+00 
6.0600000e+00 5.9700000e+00 0.0000000e+00 
6.0600000e+00 5.9900000e+00 0.0000000e+00 
6.0600000e+00 6.0100000e+00 0.0000000e+00 
6.0600000e+00 6.0300000e+00 0.0000000e+00 
6.0866667e+00 5.9700000e+00 0.0000000e+00 
6.0866667e+00 5.9900000e+00 0.0000000e+00 
6.0866667e+00 6.0100000e+00 0.0000000e+00 
6.0866667e+00 6.0300000e+00 0.0000000e+00 
6.1133333e+00 5.9700000e+00 0.0000000e+00 
6.1133333e+00 5.9900000e+00 0.0000000e+00 
6.1133333e+00 6.0100000e+00 0.0000000e+00 
6.1133333e+00 6.0300000e+00 0.0000000e+00 
6.1400000e+00 5.9700000e+00 0.0000000e+00 
6.1400000e+00 5.9900000e+00 0.0000000e+00 
6.1400000e+00 6.0100000e+00 0.0000000e+00 
6.1400000e+00 6.0300000e+00 0.0000000e+00 
6.1666667e+00 5.9700000e+00 0.0000000e+00 
6.1666667e+00 5.9900000e+00 0.0000000e+00 
6.1666667e+00 6.0100000e+00 0.0000000e+00 
6.1666667e+00 6.0300000e+00 0.0000000e+00 
6.1933333e+00 5.9700000e+00 0.0000000e+00 
6.1933333e+00 5.9900000e+00 0.0000000e+00 
6.1933333e+00 6.0100000e+00 0.0000000e+00 
6.1933333e+00 6.0300000e+00 0.0000000e+00 
6.2200000e+00 5.9700000e+00 0.0000000e+00 
6.2200000e+00 5.9900000e+00 0.0000000e+00 
6.2200000e+00 6.0100000e+00 0.0000000e+00 
6.2200000e+00 6.0300000e+00 0.0000000e+00 
6.2466667e+00 5.9700000e+00 0.0000000e+00 
6.2466667e+00 5.9900000e+00 0.0000000e+00 
6.2466667e+00 6.0100000e+00 0.0000000e+00 
6.2466667e+00 6.0300000e+00 0.0000000e+00 
6.2733333e+00 5.9700000e+00 0.0000000e+00 
6.2733333e+00 5.9900000e+00 0.0000000e+00 
6.2733333e+00 6.0100000e+00 0.0000000e+00 
6.2733333e+00 6.0300000e+00 0.0000000e+00 
6.3000000e+00 5.9700000e+00 0.0000000e+00 
6.3000000e+00 5.9900000e+00 0.0000000e+00 
6.3000000e+00 6.0100000e+00 0.0000000e+00 
6.3000000e+00 6.0300000e+00 0.0000000e+00 
6.3266667e+00 5.9700000e+00 0.0000000e+00 
6.3266667e+00 5.9900000e+00 0.0000000e+00 
6.3266667e+00 6.0100000e+00 0.0000000e+00 
6.3266667e+00 6.0300000e+00 0.0000000e+00 
6.3533333e+00 5.9700000e+00 0.0000000e+00 
6.3533333e+00 5.9900000e+00 0.0000000e+00 
6.3533333e+00 6.0100000e+00 0.0000000e+00 
6.3533333e+00 6.0300000e+00 0.0000000e+00 
6.3800000e+00 5.9700000e+00 0.0000000e+00 
6.3800000e+00 5.9900000e+00 0.0000000e+00 
6.3800000e+00 6.0100000e+00 0.0000000e+00 
6.3800000e+00 6.0300000e+00 0.0000000e+00 
6.4066667e+00 5.9700000e+00 0.0000000e+00 
6.4066667e+00 5.9900000e+00 0.0000000e+00 
6.4066667e+00 6.0100000e+00 0.0000000e+00 
6.4066667e+00 6.0300000e+00 0.0000000e+00 
6.4333333e+00 5.9700000e+00 0.0000000e+00 
6.4333333e+00 5.9900000e+00 0.0000000e+00 
6.4333333e+00 6.0100000e+00 0.0000000e+00 
6.4333333e+00 6.0300000e+00 0.0000000e+00 
6.4600000e+00 5.9700000e+00 0.0000000e+00 
6.4600000e+00 5.9900000e+00 0.0000000e+00 
6.4600000e+00 6.0100000e+00 0.0000000e+00 
6.4600000e+00 6.0300000e+00 0.0000000e+00 
6.4866667e+00 5.9700000e+00 0.0000000e+00 
6.4866667e+00 5.9900000e+00 0.0000000e+00 
6.4866667e+00 6.0100000e+00 0.0000000e+00 
6.4866667e+00 6.0300000e+00 0.0000000e+00 
6.5133333e+00 5.9700000e+00 0.0000000e+00 
6.5133333e+00 5.9900000e+00 0.0000000e+00 
6.5133333e+00 6.0100000e+00 0.0000000e+00 
6.5133333e+00 6.0300000e+00 0.0000000e+00 
6.5400000e+00 5.9700000e+00 0.0000000e+00 
6.5400000e+00 5.9900000e+00 0.0000000e+00 
6.5400000e+00 6.0100000e+00 0.0000000e+00 
6.5400000e+00 6.0300000e+00 0.0000000e+00 
6.5666667e+00 5.9700000e+00 0.0000000e+00 
6.5666667e+00 5.9900000e+00 0.0000000e+00 
6.5666667e+00 6.0100000e+00 0.0000000e+00 
6.5666667e+00 6.0300000e+00 0.0000000e+00 
6.5933333e+00 5.9700000e+00 0.0000000e+00 
6.5933333e+00 5.9900000e+00 0.0000000e+00 
6.5933333e+00 6.0100000e+00 0.0000000e+00 
6.5933333e+00 6.0300000e+00 0.0000000e+00 
6.6200000e+00 5.9700000e+00 0.0000000e+00 
6.6200000e+00 5.9900000e+00 0.0000000e+00 
6.6200000e+00 6.0100000e+00 0.0000000e+00 
6.6200000e+00 6.0300000e+00 0.0000000e+00 
6.6466667e+00 5.9700000e+00 0.0000000e+00 
6.6466667e+00 5.9900000e+00 0.0000000e+00 
6.6466667e+00 6.0100000e+00 0.0000000e+00 
6.6466667e+00 6.0300000e+00 0.0000000e+00 
6.6733333e+00 5.9700000e+00 0.0000000e+00 
6.6733333e+00 5.9900000e+00 0.0000000e+00 
6.6733333e+00 6.0100000e+00 0.0000000e+00 
6.6733333e+00 6.0300000e+00 0.0000000e+00 
6.7000000e+00 5.9700000e+00 0.0000000e+00 
6.7000000e+00 5.9900000e+00 0.0000000e+00 
6.7000000e+00 6.0100000e+00 0.0000000e+00 
6.7000000e+00 6.0300000e+00 0.0000000e+00 
6.7266667e+00 5.9700000e+00 0.0000000e+00 
6.7266667e+00 5.9900000e+00 0.0000000e+00 
6.7266667e+00 6.0100000e+00 0.0000000e+00 
6.7266667e+00 6.0300000e+00 0.0000000e+00 
6.7533333e+00 5.9700000e+00 0.0000000e+00 
6.7533333e+00 5.9900000e+00 0.0000000e+00 
6.7533333e+00 6.0100000e+00 0.0000000e+00 
6.7533333e+00 6.0300000e+00 0.0000000e+00 
6.7800000e+00 5.9700000e+00 0.0000000e+00 
6.7800000e+00 5.9900000e+00 0.0000000e+00 
6.7800000e+00 6.0100000e+00 0.0000000e+00 
6.7800000e+00 6.0300000e+00 0.0000000e+00 
6.8066667e+00 5.9700000e+00 0.0000000e+00 
6.8066667e+00 5.9900000e+00 0.0000000e+00 
6.8066667e+00 6.0100000e+00 0.0000000e+00 
6.8066667e+00 6.0300000e+00 0.0000000e+00 
6.8333333e+00 5.9700000e+00 0.0000000e+00 
6.8333333e+00 5.9900000e+00 0.0000000e+00 
6.8333333e+00 6.0100000e+00 0.0000000e+00 
6.8333333e+00 6.0300000e+00 0.0000000e+00 
6.8600000e+00 5.9700000e+00 0.0000000e+00 
6.8600000e+00 5.9900000e+00 0.0000000e+00 
6.8600000e+00 6.0100000e+00 0.0000000e+00 
6.8600000e+00 6.0300000e+00 0.0000000e+00 
6.8866667e+00 5.9700000e+00 0.0000000e+00 
6.8866667e+00 5.9900000e+00 0.0000000e+00 
6.8866667e+00 6.0100000e+00 0.0000000e+00 
6.8866667e+00 6.0300000e+00 0.0000000e+00 
6.9133333e+00 5.9700000e+00 0.0000000e+00 
6.9133333e+00 5.9900000e+00 0.0000000e+00 
6.9133333e+00 6.0100000e+00 0.0000000e+00 
6.9133333e+00 6.0300000e+00 0.0000000e+00 
6.9400000e+00 5.9700000e+00 0.0000000e+00 
6.9400000e+00 5.9900000e+00 0.0000000e+00 
6.9400000e+00 6.0100000e+00 0.0000000e+00 
6.9400000e+00 6.0300000e+00 0.0000000e+00 
6.9666667e+00 5.9700000e+00 0.0000000e+00 
6.9666667e+00 5.9900000e+00 0.0000000e+00 
6.9666667e+00 6.0100000e+00 0.0000000e+00 
6.9666667e+00 6.0300000e+00 0.0000000e+00 
6.9933333e+00 5.9700000e+00 0.0000000e+00 
6.9933333e+00 5.9900000e+00 0.0000000e+00 
6.9933333e+00 6.0100000e+00 0.0000000e+00 
6.9933333e+00 6.0300000e+00 0.0000000e+00 
7.0200000e+00 5.9700000e+00 0.0000000e+00 
7.0200000e+00 5.9900000e+00 0.0000000e+00 
[...]
POINT_DATA 604
FIELD FieldData 2
DISPLACEMENT 3 604  float
0.0000000e+00 0.0000000e+00 0.0000000e+00 
0.0000000e+00 0.0000000e+00 0.0000000e+00 
-1.1591966e-04 -6.9162140e-05 0.0000000e+00 
-3.7119274e-05 -4.5024328e-05 0.0000000e+00 
0.0000000e+00 0.0000000e+00 0.0000000e+00 
3.6313071e-05 -4.5194976e-05 0.0000000e+00 
-2.3436386e-04 -2.2236086e-04 0.0000000e+00 
-7.8881139e-05 -2.0293602e-04 0.0000000e+00 
0.0000000e+00 0.0000000e+00 0.0000000e+00 
1.1496939e-04 -6.9603262e-05 0.0000000e+00 
7.6454277e-05 -2.0358920e-04 0.0000000e+00 
-3.5217144e-04 -4.8193839e-04 0.0000000e+00 
2.3162623e-04 -2.2423700e-04 0.0000000e+00 
-1.1890973e-04 -4.6308834e-04 0.0000000e+00 
1.1327308e-04 -4.6448202e-04 0.0000000e+00 
3.4605051e-04 -4.8604529e-04 0.0000000e+00 
-4.6938851e-04 -8.4315573e-04 0.0000000e+00 
-1.5986095e-04 -8.2568245e-04 0.0000000e+00 
1.4862248e-04 -8.2810281e-04 0.0000000e+00 
4.5752351e-04 -8.5035609e-04 0.0000000e+00 
-5.8648508e-04 -1.3048876e-03 0.0000000e+00 
-2.0177352e-04 -1.2890054e-03 0.0000000e+00 
1.8181976e-04 -1.2927238e-03 0.0000000e+00 
5.6576772e-04 -1.3159885e-03 0.0000000e+00 
-7.0380913e-04 -1.8656250e-03 0.0000000e+00 
-2.4503828e-04 -1.8515938e-03 0.0000000e+00 
2.1255455e-04 -1.8568667e-03 0.0000000e+00 
6.7043056e-04 -1.8813970e-03 0.0000000e+00 
-8.2170606e-04 -2.5239045e-03 0.0000000e+00 
-2.8998903e-04 -2.5119666e-03 0.0000000e+00 
2.4049251e-04 -2.5190384e-03 0.0000000e+00 
7.7118979e-04 -2.5450809e-03 0.0000000e+00 
-9.4050446e-04 -3.2782678e-03 0.0000000e+00 
-3.3694759e-04 -3.2686539e-03 0.0000000e+00 
2.6531945e-04 -3.2777574e-03 0.0000000e+00 
8.6773778e-04 -3.3055466e-03 0.0000000e+00 
-1.0605174e-03 -4.1272660e-03 0.0000000e+00 
-3.8621978e-04 -4.1201953e-03 0.0000000e+00 
2.8673647e-04 -4.1315516e-03 0.0000000e+00 
9.5978271e-04 -4.1613102e-03 0.0000000e+00 
-1.1820424e-03 -5.0694592e-03 0.0000000e+00 
-4.3809627e-04 -5.0651395e-03 0.0000000e+00 
3.0446007e-04 -5.0789584e-03 0.0000000e+00 
1.0470478e-03 -5.1108980e-03 0.0000000e+00 
-1.3053626e-03 -6.1034161e-03 0.0000000e+00 
-4.9285266e-04 -6.1020444e-03 0.0000000e+00 
3.1822144e-04 -6.1185248e-03 0.0000000e+00 
1.1292716e-03 -6.1528459e-03 0.0000000e+00 
-1.4307456e-03 -7.2277149e-03 0.0000000e+00 
-5.5075026e-04 -7.2294772e-03 0.0000000e+00 
3.2776649e-04 -7.2488071e-03 0.0000000e+00 
1.2062063e-03 -7.2856996e-03 0.0000000e+00 
-1.5584461e-03 -8.4409423e-03 0.0000000e+00 
-6.1203606e-04 -8.4460142e-03 0.0000000e+00 
3.3285515e-04 -8.4683711e-03 0.0000000e+00 
1.2776194e-03 -8.5080144e-03 0.0000000e+00 
-1.6887046e-03 -9.7416941e-03 0.0000000e+00 
-6.7694356e-04 -9.7502411e-03 0.0000000e+00 
3.3326134e-04 -9.7757925e-03 0.0000000e+00 
1.3432916e-03 -9.8183557e-03 0.0000000e+00 
-1.8217489e-03 -1.1128576e-02 0.0000000e+00 
-7.4569269e-04 -1.1140753e-02 0.0000000e+00 
3.2877231e-04 -1.1169657e-02 0.0000000e+00 
1.4030178e-03 -1.1215299e-02 0.0000000e+00 
-1.9577931e-03 -1.2600202e-02 0.0000000e+00 
-8.1849045e-04 -1.2616156e-02 0.0000000e+00 
3.1918846e-04 -1.2648559e-02 0.0000000e+00 
1.4566055e-03 -1.2697430e-02 0.0000000e+00 
-2.0970387e-03 -1.4155197e-02 0.0000000e+00 
-8.9553111e-04 -1.4175063e-02 0.0000000e+00 
3.0432296e-04 -1.4211104e-02 0.0000000e+00 
1.5038749e-03 -1.4263345e-02 0.0000000e+00 
-2.2396755e-03 -1.5792195e-02 0.0000000e+00 
-9.7699652e-04 -1.5816101e-02 0.0000000e+00 
2.8400133e-04 -1.5855909e-02 0.0000000e+00 
1.5446595e-03 -1.5911649e-02 0.0000000e+00 
-2.3858809e-03 -1.7509838e-02 0.0000000e+00 
-1.0630567e-03 -1.7537902e-02 0.0000000e+00 
2.5806123e-04 -1.7581597e-02 0.0000000e+00 
1.5788040e-03 -1.7640960e-02 0.0000000e+00 
-2.5358208e-03 -1.9306780e-02 0.0000000e+00 
-1.1538701e-03 -1.9339111e-02 0.0000000e+00 
2.2635216e-04 -1.9386806e-02 0.0000000e+00 
1.6061655e-03 -1.9449905e-02 0.0000000e+00 
-2.6896515e-03 -2.1181684e-02 0.0000000e+00 
-1.2495837e-03 -2.1218383e-02 0.0000000e+00 
1.8873495e-04 -2.1270181e-02 0.0000000e+00 
1.6266136e-03 -2.1337121e-02 0.0000000e+00 
-2.8475170e-03 -2.3133225e-02 0.0000000e+00 
-1.3503338e-03 -2.3174385e-02 0.0000000e+00 
1.4508148e-04 -2.3230380e-02 0.0000000e+00 
1.6400279e-03 -2.3301259e-02 0.0000000e+00 
-3.0095500e-03 -2.5160086e-02 0.0000000e+00 
-1.4562457e-03 -2.5205792e-02 0.0000000e+00 
9.5274272e-05 -2.5266072e-02 0.0000000e+00 
1.6462983e-03 -2.5340978e-02 0.0000000e+00 
-3.1758738e-03 -2.7260961e-02 0.0000000e+00 
-1.5674339e-03 -2.7311291e-02 0.0000000e+00 
3.9206056e-05 -2.7375935e-02 0.0000000e+00 
1.6453257e-03 -2.7454950e-02 0.0000000e+00 
-3.3465987e-03 -2.9434554e-02 0.0000000e+00 
-1.6840031e-03 -2.9489578e-02 0.0000000e+00 
-2.3220127e-05 -2.9558658e-02 0.0000000e+00 
1.6370195e-03 -2.9641856e-02 0.0000000e+00 
-3.5218279e-03 -3.1679578e-02 0.0000000e+00 
-1.8060480e-03 -3.1739359e-02 0.0000000e+00 
-9.2091527e-05 -3.1812940e-02 0.0000000e+00 
1.6213006e-03 -3.1900387e-02 0.0000000e+00 
-3.7016544e-03 -3.3994756e-02 0.0000000e+00 
-1.9336538e-03 -3.4059349e-02 0.0000000e+00 
-1.6748564e-04 -3.4137488e-02 0.0000000e+00 
1.5980989e-03 -3.4229245e-02 0.0000000e+00 
-3.8861624e-03 -3.6378821e-02 0.0000000e+00 
-2.0668967e-03 -3.6448275e-02 0.0000000e+00 
-2.4947081e-04 -3.6531024e-02 0.0000000e+00 
1.5673540e-03 -3.6627142e-02 0.0000000e+00 
-4.0754266e-03 -3.8830517e-02 0.0000000e+00 
-2.2058439e-03 -3.8904874e-02 0.0000000e+00 
-3.3810639e-04 -3.8992276e-02 0.0000000e+00 
1.5290141e-03 -3.9092803e-02 0.0000000e+00 
-4.2695139e-03 -4.1348596e-02 0.0000000e+00 
-2.3505539e-03 -4.1427892e-02 0.0000000e+00 
-4.3344313e-04 -4.1519986e-02 0.0000000e+00 
1.4830365e-03 -4.1624961e-02 0.0000000e+00 
-4.4684819e-03 -4.3931823e-02 0.0000000e+00 
-2.5010768e-03 -4.4016086e-02 0.0000000e+00 
-5.3552337e-04 -4.4112904e-02 0.0000000e+00 
1.4293865e-03 -4.4222361e-02 0.0000000e+00 
-4.6723804e-03 -4.6578970e-02 0.0000000e+00 
-2.6574546e-03 -4.6668225e-02 0.0000000e+00 
-6.4438134e-04 -4.6769792e-02 0.0000000e+00 
1.3680374e-03 -4.6883758e-02 0.0000000e+00 
-4.8812516e-03 -4.9288821e-02 0.0000000e+00 
-2.8197215e-03 -4.9383086e-02 0.0000000e+00 
-7.6004344e-04 -4.9489422e-02 0.0000000e+00 
1.2989707e-03 -4.9607919e-02 0.0000000e+00 
-5.0951297e-03 -5.2060169e-02 0.0000000e+00 
-2.9879042e-03 -5.2159457e-02 0.0000000e+00 
-8.8252846e-04 -5.2270576e-02 0.0000000e+00 
1.2221753e-03 -5.2393621e-02 0.0000000e+00 
-5.3140417e-03 -5.4891820e-02 0.0000000e+00 
-3.1620222e-03 -5.4996135e-02 0.0000000e+00 
-1.0118477e-03 -5.5112047e-02 0.0000000e+00 
1.1376475e-03 -5.5239650e-02 0.0000000e+00 
-5.5380106e-03 -5.7782586e-02 0.0000000e+00 
-3.3420879e-03 -5.7891932e-02 0.0000000e+00 
-1.1480054e-03 -5.8012639e-02 0.0000000e+00 
1.0453924e-03 -5.8144807e-02 0.0000000e+00 
-5.7670496e-03 -6.0731294e-02 0.0000000e+00 
-3.5281073e-03 -6.0845666e-02 0.0000000e+00 
-1.2909993e-03 -6.0971169e-02 0.0000000e+00 
9.4542009e-04 -6.1107903e-02 0.0000000e+00 
-6.0011654e-03 -6.3736780e-02 0.0000000e+00 
-3.7200795e-03 -6.3856171e-02 0.0000000e+00 
-1.4408205e-03 -6.3986462e-02 0.0000000e+00 
8.3774699e-04 -6.4127758e-02 0.0000000e+00 
-6.2403588e-03 -6.6797889e-02 0.0000000e+00 
-3.9179966e-03 -6.6922286e-02 0.0000000e+00 
-1.5974542e-03 -6.7057356e-02 0.0000000e+00 
7.2239605e-04 -6.7203204e-02 0.0000000e+00 
-6.4846209e-03 -6.9913478e-02 0.0000000e+00 
-4.1218450e-03 -7.0042864e-02 0.0000000e+00 
-1.7608792e-03 -7.0182697e-02 0.0000000e+00 
5.9939412e-04 -7.0333084e-02 0.0000000e+00 
-6.7339404e-03 -7.3082410e-02 0.0000000e+00 
-4.3316046e-03 -7.3216763e-02 0.0000000e+00 
-1.9310684e-03 -7.3361339e-02 0.0000000e+00 
4.6877625e-04 -7.3516248e-02 0.0000000e+00 
-6.9882993e-03 -7.6303559e-02 0.0000000e+00 
-4.5472502e-03 -7.6442854e-02 0.0000000e+00 
-2.1079888e-03 -7.6592150e-02 0.0000000e+00 
3.3058289e-04 -7.6751558e-02 0.0000000e+00 
-7.2476747e-03 -7.9575810e-02 0.0000000e+00 
-4.7687509e-03 -7.9720017e-02 0.0000000e+00 
-2.2916021e-03 -7.9874004e-02 0.0000000e+00 
1.8486013e-04 -8.0037886e-02 0.0000000e+00 
-7.5120382e-03 -8.2898058e-02 0.0000000e+00 
-4.9960708e-03 -8.3047142e-02 0.0000000e+00 
-2.4818645e-03 -8.3205788e-02 0.0000000e+00 
3.1659092e-05 -8.3374114e-02 0.0000000e+00 
-7.7813564e-03 -8.6269204e-02 0.0000000e+00 
-5.2291687e-03 -8.6423128e-02 0.0000000e+00 
-2.6787274e-03 -8.6586400e-02 0.0000000e+00 
-1.2896393e-04 -8.6759136e-02 0.0000000e+00 
-8.0555909e-03 -8.9688164e-02 0.0000000e+00 
-5.4679987e-03 -8.9846888e-02 0.0000000e+00 
-2.8821374e-03 -9.0014745e-02 0.0000000e+00 
-2.9694799e-04 -9.0191854e-02 0.0000000e+00 
-8.3346987e-03 -9.3153861e-02 0.0000000e+00 
-5.7125103e-03 -9.3317340e-02 0.0000000e+00 
-3.0920363e-03 -9.3489740e-02 0.0000000e+00 
-4.7222751e-04 -9.3671182e-02 0.0000000e+00 
-8.6186325e-03 -9.6665229e-02 0.0000000e+00 
-5.9626485e-03 -9.6833414e-02 0.0000000e+00 
-3.3083617e-03 -9.7010312e-02 0.0000000e+00 
-6.5473235e-04 -9.7196044e-02 0.0000000e+00 
-8.9073406e-03 -1.0022121e-01 0.0000000e+00 
-6.2183541e-03 -1.0039405e-01 0.0000000e+00 
-3.5310466e-03 -1.0057540e-01 0.0000000e+00 
-8.4438829e-04 -1.0076537e-01 0.0000000e+00 
-9.2007675e-03 -1.0382076e-01 0.0000000e+00 
-6.4795639e-03 -1.0399820e-01 0.0000000e+00 
-3.7600204e-03 -1.0418395e-01 0.0000000e+00 
-1.0411169e-03 -1.0437811e-01 0.0000000e+00 
-9.4988537e-03 -1.0746284e-01 0.0000000e+00 
-6.7462108e-03 -1.0764483e-01 0.0000000e+00 
-3.9952083e-03 -1.0783491e-01 0.0000000e+00 
-1.2448361e-03 -1.0803322e-01 0.0000000e+00 
-9.8015358e-03 -1.1114642e-01 0.0000000e+00 
-7.0182245e-03 -1.1133290e-01 0.0000000e+00 
-4.2365319e-03 -1.1152727e-01 0.0000000e+00 
-1.4554599e-03 -1.1172966e-01 0.0000000e+00 
-1.0108751e-02 -1.1487049e-01 0.0000000e+00 
-7.2955313e-03 -1.1506139e-01 0.0000000e+00 
-4.4839093e-03 -1.1525999e-01 0.0000000e+00 
-1.6728968e-03 -1.1546641e-01 0.0000000e+00 
-1.0420430e-02 -1.1863404e-01 0.0000000e+00 
-7.5780545e-03 -1.1882930e-01 0.0000000e+00 
-4.7372555e-03 -1.1903206e-01 0.0000000e+00 
-1.8970544e-03 -1.1924245e-01 0.0000000e+00 
-1.0736500e-02 -1.2243607e-01 0.0000000e+00 
-7.8657140e-03 -1.2263563e-01 0.0000000e+00 
-4.9964826e-03 -1.2284249e-01 0.0000000e+00 
-2.1278371e-03 -1.2305679e-01 0.0000000e+00 
-1.1056885e-02 -1.2627561e-01 0.0000000e+00 
-8.1584262e-03 -1.2647940e-01 0.0000000e+00 
-5.2615003e-03 -1.2669029e-01 0.0000000e+00 
-2.3651464e-03 -1.2690843e-01 0.0000000e+00 
-1.1381505e-02 -1.3015168e-01 0.0000000e+00 
-8.4561050e-03 -1.3035962e-01 0.0000000e+00 
-5.5322148e-03 -1.3057448e-01 0.0000000e+00 
-2.6088835e-03 -1.3079639e-01 0.0000000e+00 
-1.1710278e-02 -1.3406330e-01 0.0000000e+00 
-8.7586611e-03 -1.3427533e-01 0.0000000e+00 
-5.8085300e-03 -1.3449409e-01 0.0000000e+00 
-2.8589441e-03 -1.3471971e-01 0.0000000e+00 
-1.2043121e-02 -1.3800953e-01 0.0000000e+00 
-9.0660033e-03 -1.3822557e-01 0.0000000e+00 
-6.0903468e-03 -1.3844815e-01 0.0000000e+00 
-3.1152215e-03 -1.3867741e-01 0.0000000e+00 
-1.2379949e-02 -1.4198942e-01 0.0000000e+00 
-9.3780383e-03 -1.4220939e-01 0.0000000e+00 
-6.3775642e-03 -1.4243572e-01 0.0000000e+00 
-3.3776067e-03 -1.4266854e-01 0.0000000e+00 
-1.2720675e-02 -1.4600203e-01 0.0000000e+00 
-9.6946708e-03 -1.4622586e-01 0.0000000e+00 
-6.6700787e-03 -1.4645586e-01 0.0000000e+00 
-3.6459885e-03 -1.4669217e-01 0.0000000e+00 
-1.3065208e-02 -1.5004643e-01 0.0000000e+00 
-1.0015803e-02 -1.5027404e-01 0.0000000e+00 
-6.9677851e-03 -1.5050764e-01 0.0000000e+00 
-3.9202536e-03 -1.5074737e-01 0.0000000e+00 
-1.3413459e-02 -1.5412171e-01 0.0000000e+00 
-1.0341337e-02 -1.5435302e-01 0.0000000e+00 
-7.2705762e-03 -1.5459014e-01 0.0000000e+00 
-4.2002867e-03 -1.5483321e-01 0.0000000e+00 
-1.3765335e-02 -1.5822697e-01 0.0000000e+00 
-1.0671172e-02 -1.5846189e-01 0.0000000e+00 
-7.5783436e-03 -1.5870245e-01 0.0000000e+00 
-4.4859710e-03 -1.5894879e-01 0.0000000e+00 
-1.4120742e-02 -1.6236131e-01 0.0000000e+00 
-1.1005207e-02 -1.6259976e-01 0.0000000e+00 
-7.8909767e-03 -1.6284369e-01 0.0000000e+00 
-4.7771881e-03 -1.6309321e-01 0.0000000e+00 
-1.4479590e-02 -1.6652384e-01 0.0000000e+00 
-1.1343338e-02 -1.6676575e-01 0.0000000e+00 
-8.2083642e-03 -1.6701296e-01 0.0000000e+00 
-5.0738160e-03 -1.6726559e-01 0.0000000e+00 
-1.4841785e-02 -1.7071371e-01 0.0000000e+00 
-1.1685463e-02 -1.7095899e-01 0.0000000e+00 
-8.5303937e-03 -1.7120940e-01 0.0000000e+00 
-5.3757341e-03 -1.7146506e-01 0.0000000e+00 
-1.5207228e-02 -1.7493006e-01 0.0000000e+00 
-1.2031478e-02 -1.7517862e-01 0.0000000e+00 
-8.8569523e-03 -1.7543214e-01 0.0000000e+00 
-5.6828206e-03 -1.7569076e-01 0.0000000e+00 
-1.5575825e-02 -1.7917203e-01 0.0000000e+00 
-1.2381276e-02 -1.7942379e-01 0.0000000e+00 
-9.1879262e-03 -1.7968035e-01 0.0000000e+00 
-5.9949531e-03 -1.7994183e-01 0.0000000e+00 
-1.5947474e-02 -1.8343879e-01 0.0000000e+00 
-1.2734751e-02 -1.8369367e-01 0.0000000e+00 
-9.5232009e-03 -1.8395318e-01 0.0000000e+00 
-6.3120108e-03 -1.8421745e-01 0.0000000e+00 
-1.6322077e-02 -1.8772952e-01 0.0000000e+00 
-1.3091797e-02 -1.8798742e-01 0.0000000e+00 
-9.8626609e-03 -1.8824980e-01 0.0000000e+00 
-6.6338693e-03 -1.8851678e-01 0.0000000e+00 
-1.6699536e-02 -1.9204339e-01 0.0000000e+00 
-1.3452305e-02 -1.9230424e-01 0.0000000e+00 
-1.0206190e-02 -1.9256941e-01 0.0000000e+00 
-6.9604037e-03 -1.9283901e-01 0.0000000e+00 
-1.7079753e-02 -1.9637962e-01 0.0000000e+00 
-1.3816169e-02 -1.9664332e-01 0.0000000e+00 
-1.0553673e-02 -1.9691119e-01 0.0000000e+00 
-7.2914890e-03 -1.9718334e-01 0.0000000e+00 
-1.7462630e-02 -2.0073740e-01 0.0000000e+00 
-1.4183281e-02 -2.0100387e-01 0.0000000e+00 
-1.0904992e-02 -2.0127436e-01 0.0000000e+00 
-7.6269996e-03 -2.0154897e-01 0.0000000e+00 
-1.7848069e-02 -2.0511595e-01 0.0000000e+00 
-1.4553535e-02 -2.0538511e-01 0.0000000e+00 
-1.1260032e-02 -2.0565813e-01 0.0000000e+00 
-7.9668099e-03 -2.0593513e-01 0.0000000e+00 
-1.8235972e-02 -2.0951452e-01 0.0000000e+00 
-1.4926822e-02 -2.0978628e-01 0.0000000e+00 
-1.1618676e-02 -2.1006175e-01 0.0000000e+00 
-8.3107945e-03 -2.1034105e-01 0.0000000e+00 
-1.8626242e-02 -2.1393235e-01 0.0000000e+00 
-1.5303037e-02 -2.1420662e-01 0.0000000e+00 
-1.1980808e-02 -2.1448446e-01 0.0000000e+00 
-8.6588277e-03 -2.1476598e-01 0.0000000e+00 
-1.9018784e-02 -2.1836869e-01 0.0000000e+00 
-1.5682074e-02 -2.1864539e-01 0.0000000e+00 
-1.2346312e-02 -2.1892551e-01 0.0000000e+00 
-9.0107844e-03 -2.1920917e-01 0.0000000e+00 
-1.9413500e-02 -2.2282282e-01 0.0000000e+00 
-1.6063827e-02 -2.2310186e-01 0.0000000e+00 
-1.2715074e-02 -2.2338418e-01 0.0000000e+00 
-9.3665394e-03 -2.2366990e-01 0.0000000e+00 
-1.9810298e-02 -2.2729402e-01 0.0000000e+00 
-1.6448192e-02 -2.2757531e-01 0.0000000e+00 
-1.3086979e-02 -2.2785975e-01 0.0000000e+00 
-9.7259687e-03 -2.2814746e-01 0.0000000e+00 
-2.0209083e-02 -2.3178158e-01 0.0000000e+00 
-1.6835066e-02 -2.3206505e-01 0.0000000e+00 
-1.3461912e-02 -2.3235153e-01 0.0000000e+00 
-1.0088948e-02 -2.3264114e-01 0.0000000e+00 
-2.0609763e-02 -2.3628482e-01 0.0000000e+00 
-1.7224345e-02 -2.3657038e-01 0.0000000e+00 
-1.3839762e-02 -2.3685882e-01 0.0000000e+00 
-1.0455356e-02 -2.3715026e-01 0.0000000e+00 
-2.1012250e-02 -2.4080307e-01 0.0000000e+00 
-1.7615931e-02 -2.4109064e-01 0.0000000e+00 
-1.4220417e-02 -2.4138096e-01 0.0000000e+00 
-1.0825066e-02 -2.4167414e-01 0.0000000e+00 
-2.1416457e-02 -2.4533566e-01 0.0000000e+00 
-1.8009722e-02 -2.4562516e-01 0.0000000e+00 
-1.4603766e-02 -2.4591728e-01 0.0000000e+00 
-1.1197959e-02 -2.4621214e-01 0.0000000e+00 
-2.1822295e-02 -2.4988195e-01 0.0000000e+00 
-1.8405622e-02 -2.5017330e-01 0.0000000e+00 
-1.4989701e-02 -2.5046714e-01 0.0000000e+00 
-1.1573916e-02 -2.5076360e-01 0.0000000e+00 
-2.2229678e-02 -2.5444131e-01 0.0000000e+00 
-1.8803532e-02 -2.5473442e-01 0.0000000e+00 
-1.5378114e-02 -2.5502992e-01 0.0000000e+00 
-1.1952818e-02 -2.5532790e-01 0.0000000e+00 
-2.2638517e-02 -2.5901312e-01 0.0000000e+00 
-1.9203358e-02 -2.5930792e-01 0.0000000e+00 
-1.5768899e-02 -2.5960499e-01 0.0000000e+00 
-1.2334550e-02 -2.5990443e-01 0.0000000e+00 
-2.3048730e-02 -2.6359677e-01 0.0000000e+00 
-1.9605004e-02 -2.6389319e-01 0.0000000e+00 
-1.6161952e-02 -2.6419176e-01 0.0000000e+00 
-1.2718998e-02 -2.6449258e-01 0.0000000e+00 
-2.3460236e-02 -2.6819167e-01 0.0000000e+00 
-2.0008379e-02 -2.6848963e-01 0.0000000e+00 
-1.6557170e-02 -2.6878963e-01 0.0000000e+00 
-1.3106047e-02 -2.6909176e-01 0.0000000e+00 
-2.3872955e-02 -2.7279725e-01 0.0000000e+00 
-2.0413392e-02 -2.7309668e-01 0.0000000e+00 
-1.6954450e-02 -2.7339803e-01 0.0000000e+00 
-1.3495584e-02 -2.7370141e-01 0.0000000e+00 
-2.4286811e-02 -2.7741295e-01 0.0000000e+00 
-2.0819954e-02 -2.7771376e-01 0.0000000e+00 
-1.7353694e-02 -2.7801640e-01 0.0000000e+00 
-1.3887498e-02 -2.7832096e-01 0.0000000e+00 
-2.4701729e-02 -2.8203821e-01 0.0000000e+00 
-2.1227980e-02 -2.8234035e-01 0.0000000e+00 
-1.7754803e-02 -2.8264421e-01 0.0000000e+00 
-1.4281680e-02 -2.8294988e-01 0.0000000e+00 
-2.5117637e-02 -2.8667252e-01 0.0000000e+00 
-2.1637386e-02 -2.8697590e-01 0.0000000e+00 
-1.8157682e-02 -2.8728092e-01 0.0000000e+00 
-1.4678023e-02 -2.8758764e-01 0.0000000e+00 
-2.5534465e-02 -2.9131534e-01 0.0000000e+00 
-2.2048090e-02 -2.9161992e-01 0.0000000e+00 
-1.8562237e-02 -2.9192601e-01 0.0000000e+00 
-1.5076421e-02 -2.9223372e-01 0.0000000e+00 
-2.5952146e-02 -2.9596619e-01 0.0000000e+00 
-2.2460014e-02 -2.9627188e-01 0.0000000e+00 
-1.8968377e-02 -2.9657901e-01 0.0000000e+00 
-1.5476770e-02 -2.9688764e-01 0.0000000e+00 
-2.6370619e-02 -3.0062459e-01 0.0000000e+00 
-2.2873081e-02 -3.0093133e-01 0.0000000e+00 
-1.9376014e-02 -3.0123941e-01 0.0000000e+00 
-1.5878969e-02 -3.0154892e-01 0.0000000e+00 
-2.6789821e-02 -3.0529005e-01 0.0000000e+00 
-2.3287217e-02 -3.0559779e-01 0.0000000e+00 
-1.9785061e-02 -3.0590678e-01 0.0000000e+00 
-1.6282919e-02 -3.0621710e-01 0.0000000e+00 
-2.7209695e-02 -3.0996215e-01 0.0000000e+00 
-2.3702352e-02 -3.1027082e-01 0.0000000e+00 
-2.0195435e-02 -3.1058065e-01 0.0000000e+00 
-1.6688525e-02 -3.1089174e-01 0.0000000e+00 
-2.7630184e-02 -3.1464044e-01 0.0000000e+00 
-2.4118416e-02 -3.1494998e-01 0.0000000e+00 
-2.0607054e-02 -3.1526061e-01 0.0000000e+00 
-1.7095693e-02 -3.1557241e-01 0.0000000e+00 
-2.8051227e-02 -3.1932452e-01 0.0000000e+00 
-2.4535343e-02 -3.1963487e-01 0.0000000e+00 
-2.1019842e-02 -3.1994624e-01 0.0000000e+00 
-1.7504335e-02 -3.2025869e-01 0.0000000e+00 
-2.8472774e-02 -3.2401396e-01 0.0000000e+00 
-2.4953066e-02 -3.2432508e-01 0.0000000e+00 
-2.1433720e-02 -3.2463713e-01 0.0000000e+00 
-1.7914364e-02 -3.2495020e-01 0.0000000e+00 
-2.8894775e-02 -3.2870840e-01 0.0000000e+00 
-2.5371525e-02 -3.2902022e-01 0.0000000e+00 
-2.1848617e-02 -3.2933291e-01 0.0000000e+00 
-1.8325694e-02 -3.2964654e-01 0.0000000e+00 
-2.9317183e-02 -3.3340745e-01 0.0000000e+00 
-2.5790661e-02 -3.3371993e-01 0.0000000e+00 
-2.2264460e-02 -3.3403321e-01 0.0000000e+00 
-1.8738240e-02 -3.3434736e-01 0.0000000e+00 
-2.9739953e-02 -3.3811076e-01 0.0000000e+00 
-2.6210417e-02 -3.3842385e-01 0.0000000e+00 
-2.2681182e-02 -3.3873768e-01 0.0000000e+00 
-1.9151924e-02 -3.3905230e-01 0.0000000e+00 
-3.0163045e-02 -3.4281799e-01 0.0000000e+00 
-2.6630739e-02 -3.4313165e-01 0.0000000e+00 
-2.3098716e-02 -3.4344597e-01 0.0000000e+00 
-1.9566667e-02 -3.4376103e-01 0.0000000e+00 
-3.0586420e-02 -3.4752883e-01 0.0000000e+00 
-2.7051578e-02 -3.4784300e-01 0.0000000e+00 
-2.3517001e-02 -3.4815778e-01 0.0000000e+00 
-1.9982394e-02 -3.4847324e-01 0.0000000e+00 
-3.1010041e-02 -3.5224296e-01 0.0000000e+00 
-2.7472885e-02 -3.5255760e-01 0.0000000e+00 
-2.3935975e-02 -3.5287281e-01 0.0000000e+00 
-2.0399033e-02 -3.5318862e-01 0.0000000e+00 
-3.1433874e-02 -3.5696008e-01 0.0000000e+00 
-2.7894613e-02 -3.5727516e-01 0.0000000e+00 
-2.4355582e-02 -3.5759075e-01 0.0000000e+00 
-2.0816516e-02 -3.5790690e-01 0.0000000e+00 
-3.1857889e-02 -3.6167994e-01 0.0000000e+00 
-2.8316721e-02 -3.6199541e-01 0.0000000e+00 
-2.4775767e-02 -3.6231135e-01 0.0000000e+00 
-2.1234777e-02 -3.6262779e-01 0.0000000e+00 
-3.2282055e-02 -3.6640226e-01 0.0000000e+00 
-2.8739169e-02 -3.6671810e-01 0.0000000e+00 
-2.5196478e-02 -3.6703434e-01 0.0000000e+00 
-2.1653751e-02 -3.6735105e-01 0.0000000e+00 