# vtk DataFile Version 4.0
vtk output
ASCII
DATASET UNSTRUCTURED_GRID
POINTS 604 float
5.5000000e+00 5.9700000e+00 0.0000000e+00 
5.5000000e+00 5.9900000e+00 0.0000000e+00 
5.5266667e+00 5.9700000e+00 0.0000000e+00 
5.5266667e+00 5.9900000e+00 0.0000000e+00 
5.5000000e+00 6.0100000e+00 0.0000000e+00 
5.5266667e+00 6.0100000e+00 0.0000000e+00 
5.5533333e+00 5.9700000e+00 0.0000000e+00 
5.5533333e+00 5.9900000e+00 0.0000000e+00 
5.5000000e+00 6.0300000e+00 0.0000000e+00 
5.5266667e+00 6.0300000e+00 0.0000000e+00 
5.5533333e+00 6.0100000e+00 0.0000000e+00 
5.5800000e+00 5.9700000e+00 0.0000000e+00 
5.5533333e+00 6.0300000e+00 0.0000000e+00 
5.5800000e+00 5.9900000e+00 0.0000000e+00 
5.5800000e+00 6.0100000e+00 0.0000000e+00 
5.5800000e+00 6.0300000e+00 0.0000000e+00 
5.6066667e+00 5.9700000e+00 0.0000000e+00 
5.6066667e+00 5.9900000e+00 0.0000000e+00 
5.6066667e+00 6.0100000e+00 0.0000000e+00 
5.6066667e+00 6.0300000e+00 0.0000000e+00 
5.6333333e+00 5.9700000e+00 0.0000000e+00 
5.6333333e+00 5.9900000e+00 0.0000000e+00 
5.6333333e+00 6.0100000e+00 0.0000000e+00 
5.6333333e+00 6.0300000e+00 0.0000000e+00 
5.6600000e+00 5.9700000e+00 0.0000000e+00 
5.6600000e+00 5.9900000e+00 0.0000000e+00 
5.6600000e+00 6.0100000e+00 0.0000000e+00 
5.6600000e+00 6.0300000e+00 0.0000000e+00 
5.6866667e+00 5.9700000e+00 0.0000000e+00 
5.6866667e+00 5.9900000e+00 0.0000000e+00 
5.6866667e+00 6.0100000e+00 0.0000000e+00 
5.6866667e+00 6.0300000e+00 0.0000000e+00 
5.7133333e+00 5.9700000e+00 0.0000000e+00 
5.7133333e+00 5.9900000e+00 0.0000000e+00 
5.7133333e+00 6.0100000e+00 0.0000000e+00 
5.7133333e+00 6.0300000e+00 0.0000000e+00 
5.7400000e+00 5.9700000e+00 0.0000000e+00 
5.7400000e+00 5.9900000e+00 0.0000000e+00 
5.7400000e+00 6.0100000e+00 0.0000000e+00 
5.7400000e+00 6.0300000e+00 0.0000000e+00 
5.7666667e+00 5.9700000e+00 0.0000000e+00 
5.7666667e+00 5.9900000e+00 0.0000000e+00 
5.7666667e+00 6.0100000e+00 0.0000000e+00 
5.7666667e+00 6.0300000e+00 0.0000000e+00 
5.7933333e+00 5.9700000e+00 0.0000000e+00 
5.7933333e+00 5.9900000e+00 0.0000000e+00 
5.7933333e+00 6.0100000e+00 0.0000000e+00 
5.7933333e+00 6.0300000e+00 0.0000000e+00 
5.8200000e+00 5.9700000e+00 0.0000000e+00 
5.8200000e+00 5.9900000e+00 0.0000000e+00 
5.8200000e+00 6.0100000e+00 0.0000000e+00 
5.8200000e+00 6.0300000e+00 0.0000000e+00 
5.8466667e+00 5.9700000e+00 0.0000000e+00 
5.8466667e+00 5.9900000e+00 0.0000000e+00 
5.8466667e+00 6.0100000e+00 0.0000000e+00 
5.8466667e+00 6.0300000e+00 0.0000000e+00 
5.8733333e+00 5.9700000e+00 0.0000000e+00 
5.8733333e+00 5.9900000e+00 0.0000000e+00 
5.8733333e+00 6.0100000e+00 0.0000000e+00 
5.8733333e+00 6.0300000e+00 0.0000000e+00 
5.9000000e+00 5.9700000e+00 0.0000000e+00 
5.9000000e+00 5.9900000e+00 0.0000000e+00 
5.9000000e+00 6.0100000e+00 0.0000000e+00 
5.9000000e+00 6.0300000e+00 0.0000000e+00 
5.9266667e+00 5.9700000e+00 0.0000000e+00 
5.9266667e+00 5.9900000e+00 0.0000000e+00 
5.9266667e+00 6.0100000e+00 0.0000000e+00 
5.9266667e+00 6.0300000e+00 0.0000000e+00 
5.9533333e+00 5.9700000e+00 0.0000000e+00 
5.9533333e+00 5.9900000e+00 0.0000000e+00 
5.9533333e+00 6.0100000e+00 0.0000000e+00 
5.9533333e+00 6.0300000e+00 0.0000000e+00 
5.9800000e+00 5.9700000e+00 0.0000000e+00 
5.9800000e+00 5.9900000e+00 0.0000000e+00 
5.9800000e+00 6.0100000e+00 0.0000000e+00 
5.9800000e+00 6.0300000e+00 0.0000000e+00 
6.0066667e+00 5.9700000e+00 0.0000000e+00 
6.0066667e+00 5.9900000e+00 0.0000000e+00 
6.0066667e+00 6.0100000e+00 0.0000000e+00 
6.0066667e+00 6.0300000e+00 0.0000000e+00 
6.0333333e+00 5.9700000e+00 0.0000000e+00 
6.0333333e+00 5.9900000e+00 0.0000000e+00 
6.0333333e+00 6.0100000e+00 0.0000000e+00 
6.0333333e+00 6.0300000e+00 0.0000000e+00 
6.0600000e+00 5.9700000e+00 0.0000000e+00 
6.0600000e+00 5.9900000e+00 0.0000000e+00 
6.0600000e+00 6.0100000e+00 0.0000000e+00 
6.0600000e+00 6.0300000e+00 0.0000000e+00 
6.0866667e+00 5.9700000e+00 0.0000000e+00 
6.0866667e+00 5.9900000e+00 0.0000000e+00 
6.0866667e+00 6.0100000e+00 0.0000000e+00 
6.0866667e+00 6.0300000e+00 0.0000000e+00 
6.1133333e+00 5.9700000e+00 0.0000000e+00 
6.1133333e+00 5.9900000e+00 0.0000000e+00 
6.1133333e+00 6.0100000e+00 0.0000000e+00 
6.1133333e+00 6.0300000e+00 0.0000000e+00 
6.1400000e+00 5.9700000e+00 0.0000000e+00 
6.1400000e+00 5.9900000e+00 0.0000000e+00 
6.1400000e+00 6.0100000e+00 0.0000000e+00 
6.1400000e+00 6.0300000e+00 0.0000000e+00 
6.1666667e+00 5.9700000e+00 0.0000000e+00 
6.1666667e+00 5.9900000e+00 0.0000000e+00 
6.1666667e+00 6.0100000e+00 0.0000000e+00 
6.1666667e+00 6.0300000e+00 0.0000000e+00 
6.1933333e+00 5.9700000e+00 0.0000000e+00 
6.1933333e+00 5.9900000e+00 0.0000000e+00 
6.1933333e+00 6.0100000e+00 0.0000000e+00 
6.1933333e+00 6.0300000e+00 0.0000000e+00 
6.2200000e+00 5.9700000e+00 0.0000000e+00 
6.2200000e+00 5.9900000e+00 0.0000000e+00 
6.2200000e+00 6.0100000e+00 0.0000000e+00 
6.2200000e+00 6.0300000e+00 0.0000000e+00 
6.2466667e+00 5.9700000e+00 0.0000000e+00 
6.2466667e+00 5.9900000e+00 0.0000000e+00 
6.2466667e+00 6.0100000e+00 0.0000000e+00 
6.2466667e+00 6.0300000e+00 0.0000000e+00 
6.2733333e+00 5.9700000e+00 0.0000000e+00 
6.2733333e+00 5.9900000e+00 0.0000000e+00 
6.2733333e+00 6.0100000e+00 0.0000000e+00 
6.2733333e+00 6.0300000e+00 0.0000000e+00 
6.3000000e+00 5.9700000e+00 0.0000000e+00 
6.3000000e+00 5.9900000e+00 0.0000000e+00 
6.3000000e+00 6.0100000e+00 0.0000000e+00 
6.3000000e+00 6.0300000e+00 0.0000000e+00 
6.3266667e+00 5.9700000e+00 0.0000000e+00 
6.3266667e+00 5.9900000e+00 0.0000000e+00 
6.3266667e+00 6.0100000e+00 0.0000000e+00 
6.3266667e+00 6.0300000e+00 0.0000000e+00 
6.3533333e+00 5.9700000e+00 0.0000000e+00 
6.3533333e+00 5.9900000e+00 0.0000000e+00 
6.3533333e+00 6.0100000e+00 0.0000000e+00 
6.3533333e+00 6.0300000e+00 0.0000000e+00 
6.3800000e+00 5.9700000e+00 0.0000000e+00 
6.3800000e+00 5.9900000e+00 0.0000000e+00 
6.3800000e+00 6.0100000e+00 0.0000000e+00 
6.3800000e+00 6.0300000e+00 0.0000000e+00 
6.4066667e+00 5.9700000e+00 0.0000000e+00 
6.4066667e+00 5.9900000e+00 0.0000000e+00 
6.4066667e+00 6.0100000e+00 0.0000000e+00 
6.4066667e+00 6.0300000e+00 0.0000000e+00 
6.4333333e+00 5.9700000e+00 0.0000000e+00 
6.4333333e+00 5.9900000e+00 0.0000000e+00 
6.4333333e+00 6.0100000e+00 0.0000000e+00 
6.4333333e+00 6.0300000e+00 0.0000000e+00 
6.4600000e+00 5.9700000e+00 0.0000000e+00 
6.4600000e+00 5.9900000e+00 0.0000000e+00 
6.4600000e+00 6.0100000e+00 0.0000000e+00 
6.4600000e+00 6.0300000e+00 0.0000000e+00 
6.4866667e+00 5.9700000e+00 0.0000000e+00 
6.4866667e+00 5.9900000e+00 0.0000000e+00 
6.4866667e+00 6.0100000e+00 0.0000000e+00 
6.4866667e+00 6.0300000e+00 0.0000000e+00 
6.5133333e+00 5.9700000e+00 0.0000000e+00 
6.5133333e+00 5.9900000e+00 0.0000000e+00 
6.5133333e+00 6.0100000e+00 0.0000000e+00 
6.5133333e+00 6.0300000e+00 0.0000000e+00 
6.5400000e+00 5.9700000e+00 0.0000000e+00 
6.5400000e+00 5.9900000e+00 0.0000000e+00 
6.5400000e+00 6.0100000e+00 0.0000000e+00 
6.5400000e+00 6.0300000e+00 0.0000000e+00 
6.5666667e+00 5.9700000e+00 0.0000000e+00 
6.5666667e+00 5.9900000e+00 0.0000000e+00 
6.5666667e+00 6.0100000e+00 0.0000000e+00 
6.5666667e+00 6.0300000e+00 0.0000000e+00 
6.5933333e+00 5.9700000e+00 0.0000000e+00 
6.5933333e+00 5.9900000e+00 0.0000000e+00 
6.5933333e+00 6.0100000e+00 0.0000000e+00 
6.5933333e+00 6.0300000e+00 0.0000000e+00 
6.6200000e+00 5.9700000e+00 0.0000000e+00 
6.6200000e+00 5.9900000e+00 0.0000000e+00 
6.6200000e+00 6.0100000e+00 0.0000000e+00 
6.6200000e+00 6.0300000e+00 0.0000000e+00 
6.6466667e+00 5.9700000e+00 0.0000000e+00 
6.6466667e+00 5.9900000e+00 0.0000000e+00 
6.6466667e+00 6.0100000e+00 0.0000000e+00 
6.6466667e+00 6.0300000e+00 0.0000000e+00 
6.6733333e+00 5.9700000e+00 0.0000000e+00 
6.6733333e+00 5.9900000e+00 0.0000000e+00 
6.6733333e+00 6.0100000e+00 0.0000000e+00 
6.6733333e+00 6.0300000e+00 0.0000000e+00 
6.7000000e+00 5.9700000e+00 0.0000000e+00 
6.7000000e+00 5.9900000e+00 0.0000000e+00 
6.7000000e+00 6.0100000e+00 0.0000000e+00 
6.7000000e+00 6.0300000e+00 0.0000000e+00 
6.7266667e+00 5.9700000e+00 0.0000000e+00 
6.7266667e+00 5.9900000e+00 0.0000000e+00 
6.7266667e+00 6.0100000e+00 0.0000000e+00 
6.7266667e+00 6.0300000e+00 0.0000000e+00 
6.7533333e+00 5.9700000e+00 0.0000000e+00 
6.7533333e+00 5.9900000e+00 0.0000000e+00 
6.7533333e+00 6.0100000e+00 0.0000000e+00 
6.7533333e+00 6.0300000e+00 0.0000000e+00 
6.7800000e+00 5.9700000e+00 0.0000000e+00 
6.7800000e+00 5.9900000e+00 0.0000000e+00 
6.7800000e+00 6.0100000e+00 0.0000000e+00 
6.7800000e+00 6.0300000e+00 0.0000000e+00 
6.8066667e+00 5.9700000e+00 0.0000000e+00 
6.8066667e+00 5.9900000e+00 0.0000000e+00 
6.8066667e+00 6.0100000e+00 0.0000000e+00 
6.8066667e+00 6.0300000e+00 0.0000000e+00 
6.8333333e+00 5.9700000e+00 0.0000000e+00 
6.8333333e+00 5.9900000e+00 0.0000000e+00 
6.8333333e+00 6.0100000e+00 0.0000000e+00 
6.8333333e+00 6.0300000e+00 0.0000000e+00 
6.8600000e+00 5.9700000e+00 0.0000000e+00 
6.8600000e+00 5.9900000e+00 0.0000000e+00 
6.8600000e+00 6.0100000e+00 0.0000000e+00 
6.8600000e+00 6.0300000e+00 0.0000000e+00 
6.8866667e+00 5.9700000e+00 0.0000000e+00 
6.8866667e+00 5.9900000e+00 0.0000000e+00 
6.8866667e+00 6.0100000e+00 0.0000000e+00 
6.8866667e+00 6.0300000e+00 0.0000000e+00 
6.9133333e+00 5.9700000e+00 0.0000000e+00 
6.9133333e+00 5.9900000e+00 0.0000000e+00 
6.9133333e+00 6.0100000e+00 0.0000000e+00 
6.9133333e+00 6.0300000e+00 0.0000000e+00 
6.9400000e+00 5.9700000e+00 0.0000000e+00 
6.9400000e+00 5.9900000e+00 0.0000000e+00 
6.9400000e+00 6.0100000e+00 0.0000000e+00 
6.9400000e+00 6.0300000e+00 0.0000000e+00 
6.9666667e+00 5.9700000e+00 0.0000000e+00 
6.9666667e+00 5.9900000e+00 0.0000000e+00 
6.9666667e+00 6.0100000e+00 0.0000000e+00 
6.9666667e+00 6.0300000e+00 0.0000000e+00 
6.9933333e+00 5.9700000e+00 0.0000000e+00 
6.9933333e+00 5.9900000e+00 0.0000000e+00 
6.9933333e+00 6.0100000e+00 0.0000000e+00 
6.9933333e+00 6.0300000e+00 0.0000000e+00 
7.0200000e+00 5.9700000e+00 0.0000000e+00 
7.0200000e+00 5.9900000e+00 0.0000000e+00 
[...]
POINT_DATA 604
FIELD FieldData 2
DISPLACEMENT 3 604  float
0.0000000e+00 0.0000000e+00 0.0000000e+00 
0.0000000e+00 0.0000000e+00 0.0000000e+00 
-2.8379366e-07 -1.7525690e-07 0.0000000e+00 
-1.0141774e-07 -9.3068666e-08 0.0000000e+00 
0.0000000e+00 0.0000000e+00 0.0000000e+00 
6.8821268e-08 -7.0626707e-08 0.0000000e+00 
-5.8654793e-07 -5.1391672e-07 0.0000000e+00 
-2.2645947e-07 -4.3981904e-07 0.0000000e+00 
0.0000000e+00 0.0000000e+00 0.0000000e+00 
2.3523813e-07 -1.0062926e-07 0.0000000e+00 
1.3952706e-07 -4.1303544e-07 0.0000000e+00 
-9.0547114e-07 -1.1154966e-06 0.0000000e+00 
4.9729768e-07 -4.3772925e-07 0.0000000e+00 
-3.4956344e-07 -1.0378444e-06 0.0000000e+00 
2.1160091e-07 -1.0128342e-06 0.0000000e+00 
7.6851719e-07 -1.0401976e-06 0.0000000e+00 
-1.2368216e-06 -1.9845647e-06 0.0000000e+00 
-4.7652605e-07 -1.9053593e-06 0.0000000e+00 
2.8864018e-07 -1.8803913e-06 0.0000000e+00 
1.0494882e-06 -1.9097702e-06 0.0000000e+00 
-1.5786197e-06 -3.1320066e-06 0.0000000e+00 
-6.0717565e-07 -3.0507390e-06 0.0000000e+00 
3.6877043e-07 -3.0255703e-06 0.0000000e+00 
1.3408167e-06 -3.0563969e-06 0.0000000e+00 
-1.9303464e-06 -4.5656090e-06 0.0000000e+00 
-7.4134193e-07 -4.4827339e-06 0.0000000e+00 
4.5174791e-07 -4.4574226e-06 0.0000000e+00 
1.6412917e-06 -4.4898209e-06 0.0000000e+00 
-2.2910571e-06 -6.2943286e-06 0.0000000e+00 
-8.7882964e-07 -6.2095430e-06 0.0000000e+00 
5.3719281e-07 -6.1839094e-06 0.0000000e+00 
1.9501142e-06 -6.2173080e-06 0.0000000e+00 
-2.6601114e-06 -8.3243806e-06 0.0000000e+00 
-1.0193539e-06 -8.2382909e-06 0.0000000e+00 
6.2482051e-07 -8.2125120e-06 0.0000000e+00 
2.2662556e-06 -8.2471893e-06 0.0000000e+00 
-3.0366415e-06 -1.0663516e-05 0.0000000e+00 
-1.1626768e-06 -1.0575748e-05 0.0000000e+00 
7.1430890e-07 -1.0549615e-05 0.0000000e+00 
2.5889184e-06 -1.0584952e-05 0.0000000e+00 
-3.4197715e-06 -1.3316266e-05 0.0000000e+00 
-1.3085312e-06 -1.3227493e-05 0.0000000e+00 
8.0538855e-07 -1.3201203e-05 0.0000000e+00 
2.9172518e-06 -1.3237546e-05 0.0000000e+00 
-3.8087728e-06 -1.6288982e-05 0.0000000e+00 
-1.4566221e-06 -1.6198834e-05 0.0000000e+00 
8.9777941e-07 -1.6172189e-05 0.0000000e+00 
3.2504484e-06 -1.6208859e-05 0.0000000e+00 
-4.2027052e-06 -1.9584845e-05 0.0000000e+00 
-1.6066752e-06 -1.9493995e-05 0.0000000e+00 
9.9122806e-07 -1.9467206e-05 0.0000000e+00 
3.5877379e-06 -1.9504623e-05 0.0000000e+00 
-4.6008322e-06 -2.3208795e-05 0.0000000e+00 
-1.7583837e-06 -2.3116853e-05 0.0000000e+00 
1.0854815e-06 -2.3089703e-05 0.0000000e+00 
3.9282257e-06 -2.3127138e-05 0.0000000e+00 
-5.0021741e-06 -2.7162454e-05 0.0000000e+00 
-1.9114306e-06 -2.7070131e-05 0.0000000e+00 
1.1802902e-06 -2.7042900e-05 0.0000000e+00 
4.2712373e-06 -2.7080810e-05 0.0000000e+00 
-5.4060425e-06 -3.1449382e-05 0.0000000e+00 
-2.0654434e-06 -3.1356307e-05 0.0000000e+00 
1.2754685e-06 -3.1328655e-05 0.0000000e+00 
4.6157024e-06 -3.1366364e-05 0.0000000e+00 
-5.8112822e-06 -3.6070388e-05 0.0000000e+00 
-2.2203360e-06 -3.5976633e-05 0.0000000e+00 
1.3705142e-06 -3.5948472e-05 0.0000000e+00 
4.9610358e-06 -3.5985723e-05 0.0000000e+00 
-6.2169568e-06 -4.1025062e-05 0.0000000e+00 
-2.3755251e-06 -4.0931469e-05 0.0000000e+00 
1.4654212e-06 -4.0903272e-05 0.0000000e+00 
5.3064520e-06 -4.0940620e-05 0.0000000e+00 
-6.6223400e-06 -4.6314979e-05 0.0000000e+00 
-2.5306116e-06 -4.6221029e-05 0.0000000e+00 
1.5600051e-06 -4.6192509e-05 0.0000000e+00 
5.6508671e-06 -4.6229117e-05 0.0000000e+00 
-7.0260744e-06 -5.1937466e-05 0.0000000e+00 
-2.6852750e-06 -5.1844049e-05 0.0000000e+00 
1.6539980e-06 -5.1815494e-05 0.0000000e+00 
5.9938612e-06 -5.1851962e-05 0.0000000e+00 
-7.4275156e-06 -5.7892405e-05 0.0000000e+00 
-2.8390446e-06 -5.7799062e-05 0.0000000e+00 
1.7472023e-06 -5.7770231e-05 0.0000000e+00 
6.3342690e-06 -5.7805600e-05 0.0000000e+00 
-7.8251725e-06 -6.4175741e-05 0.0000000e+00 
-2.9915280e-06 -6.4083350e-05 0.0000000e+00 
1.8393360e-06 -6.4054543e-05 0.0000000e+00 
6.6714754e-06 -6.4089477e-05 0.0000000e+00 
-8.2182001e-06 -7.0785630e-05 0.0000000e+00 
-3.1422538e-06 -7.0693648e-05 0.0000000e+00 
1.9301927e-06 -7.0664566e-05 0.0000000e+00 
7.0040892e-06 -7.0698083e-05 0.0000000e+00 
-8.6050224e-06 -7.7715680e-05 0.0000000e+00 
-3.2907885e-06 -7.7625094e-05 0.0000000e+00 
2.0194481e-06 -7.7596142e-05 0.0000000e+00 
7.3316660e-06 -7.7628895e-05 0.0000000e+00 
-8.9848785e-06 -8.4961921e-05 0.0000000e+00 
-3.4364482e-06 -8.4872465e-05 0.0000000e+00 
2.1070318e-06 -8.4843507e-05 0.0000000e+00 
7.6526176e-06 -8.4874751e-05 0.0000000e+00 
-9.3556915e-06 -9.2516640e-05 0.0000000e+00 
-3.5787792e-06 -9.2429064e-05 0.0000000e+00 
2.1926010e-06 -9.2400302e-05 0.0000000e+00 
7.9665794e-06 -9.2430432e-05 0.0000000e+00 
-9.7165939e-06 -1.0037330e-04 0.0000000e+00 
-3.7171443e-06 -1.0028742e-04 0.0000000e+00 
2.2759525e-06 -1.0025872e-04 0.0000000e+00 
8.2719340e-06 -1.0028698e-04 0.0000000e+00 
-1.0065748e-05 -1.0852216e-04 0.0000000e+00 
-3.8510261e-06 -1.0843870e-04 0.0000000e+00 
2.3566994e-06 -1.0841035e-04 0.0000000e+00 
8.5680007e-06 -1.0843707e-04 0.0000000e+00 
-1.0402144e-05 -1.1695414e-04 0.0000000e+00 
-3.9797297e-06 -1.1687304e-04 0.0000000e+00 
2.4347956e-06 -1.1684502e-04 0.0000000e+00 
8.8529360e-06 -1.1686994e-04 0.0000000e+00 
-1.0723765e-05 -1.2565726e-04 0.0000000e+00 
-4.1028082e-06 -1.2557904e-04 0.0000000e+00 
2.5098643e-06 -1.2555146e-04 0.0000000e+00 
9.1266645e-06 -1.2557449e-04 0.0000000e+00 
-1.1029954e-05 -1.3461944e-04 0.0000000e+00 
-4.2194348e-06 -1.3454452e-04 0.0000000e+00 
2.5818259e-06 -1.3451773e-04 0.0000000e+00 
9.3875967e-06 -1.3453873e-04 0.0000000e+00 
-1.1318670e-05 -1.4382764e-04 0.0000000e+00 
-4.3289654e-06 -1.4375645e-04 0.0000000e+00 
2.6507309e-06 -1.4373054e-04 0.0000000e+00 
9.6348393e-06 -1.4375000e-04 0.0000000e+00 
-1.1588559e-05 -1.5326811e-04 0.0000000e+00 
-4.4309949e-06 -1.5320040e-04 0.0000000e+00 
2.7163016e-06 -1.5317526e-04 0.0000000e+00 
9.8683744e-06 -1.5319231e-04 0.0000000e+00 
-1.1839252e-05 -1.6292424e-04 0.0000000e+00 
-4.5248014e-06 -1.6286120e-04 0.0000000e+00 
2.7785785e-06 -1.6283730e-04 0.0000000e+00 
1.0086943e-05 -1.6285282e-04 0.0000000e+00 
-1.2068854e-05 -1.7278282e-04 0.0000000e+00 
-4.6100544e-06 -1.7272362e-04 0.0000000e+00 
2.8373030e-06 -1.7270066e-04 0.0000000e+00 
1.0290114e-05 -1.7271344e-04 0.0000000e+00 
-1.2276852e-05 -1.8282452e-04 0.0000000e+00 
-4.6862291e-06 -1.8277053e-04 0.0000000e+00 
2.8925762e-06 -1.8274910e-04 0.0000000e+00 
1.0476697e-05 -1.8276065e-04 0.0000000e+00 
-1.2462328e-05 -1.9303493e-04 0.0000000e+00 
-4.7530956e-06 -1.9298497e-04 0.0000000e+00 
2.9442097e-06 -1.9296461e-04 0.0000000e+00 
1.0647089e-05 -1.9297323e-04 0.0000000e+00 
-1.2625166e-05 -2.0339294e-04 0.0000000e+00 
-4.8102301e-06 -2.0334878e-04 0.0000000e+00 
2.9924058e-06 -2.0333029e-04 0.0000000e+00 
1.0800572e-05 -2.0333805e-04 0.0000000e+00 
-1.2764457e-05 -2.1388463e-04 0.0000000e+00 
-4.8575722e-06 -2.1384455e-04 0.0000000e+00 
3.0371343e-06 -2.1382724e-04 0.0000000e+00 
1.0937309e-05 -2.1383200e-04 0.0000000e+00 
-1.2880489e-05 -2.2448738e-04 0.0000000e+00 
-4.8948220e-06 -2.2445359e-04 0.0000000e+00 
3.0784619e-06 -2.2443830e-04 0.0000000e+00 
1.1057218e-05 -2.2444223e-04 0.0000000e+00 
-1.2972703e-05 -2.3518859e-04 0.0000000e+00 
-4.9219837e-06 -2.3515886e-04 0.0000000e+00 
3.1164086e-06 -2.3514485e-04 0.0000000e+00 
1.1160370e-05 -2.3514575e-04 0.0000000e+00 
-1.3041251e-05 -2.4596455e-04 0.0000000e+00 
-4.9388504e-06 -2.4594143e-04 0.0000000e+00 
3.1511964e-06 -2.4592973e-04 0.0000000e+00 
1.1246602e-05 -2.4593024e-04 0.0000000e+00 
-1.3086012e-05 -2.5680338e-04 0.0000000e+00 
-4.9454338e-06 -2.5678429e-04 0.0000000e+00 
3.1828317e-06 -2.5677390e-04 0.0000000e+00 
1.1316458e-05 -2.5677137e-04 0.0000000e+00 
-1.3107121e-05 -2.6768098e-04 0.0000000e+00 
-4.9417183e-06 -2.6766853e-04 0.0000000e+00 
3.2114680e-06 -2.6766052e-04 0.0000000e+00 
1.1369945e-05 -2.6765783e-04 0.0000000e+00 
-1.3104658e-05 -2.7858585e-04 0.0000000e+00 
-4.9278436e-06 -2.7857736e-04 0.0000000e+00 
3.2371053e-06 -2.7857054e-04 0.0000000e+00 
1.1407365e-05 -2.7856489e-04 0.0000000e+00 
-1.3078731e-05 -2.8949368e-04 0.0000000e+00 
-4.9039163e-06 -2.8949178e-04 0.0000000e+00 
3.2597829e-06 -2.8948792e-04 0.0000000e+00 
1.1429285e-05 -2.8948215e-04 0.0000000e+00 
-1.3030116e-05 -3.0039082e-04 0.0000000e+00 
-4.8690562e-06 -3.0039538e-04 0.0000000e+00 
3.2807560e-06 -3.0039450e-04 0.0000000e+00 
1.1435637e-05 -3.0038878e-04 0.0000000e+00 
-1.2959246e-05 -3.1126391e-04 0.0000000e+00 
-4.8245707e-06 -3.1127208e-04 0.0000000e+00 
3.2990706e-06 -3.1127237e-04 0.0000000e+00 
1.1427321e-05 -3.1126389e-04 0.0000000e+00 
-1.2866860e-05 -3.2208966e-04 0.0000000e+00 
-4.7706938e-06 -3.2210422e-04 0.0000000e+00 
3.3149245e-06 -3.2210693e-04 0.0000000e+00 
1.1405048e-05 -3.2209881e-04 0.0000000e+00 
-1.2754055e-05 -3.3285961e-04 0.0000000e+00 
-4.7076504e-06 -3.3287743e-04 0.0000000e+00 
3.3286119e-06 -3.3288145e-04 0.0000000e+00 
1.1369058e-05 -3.3287074e-04 0.0000000e+00 
-1.2621479e-05 -3.4355181e-04 0.0000000e+00 
-4.6357812e-06 -3.4357575e-04 0.0000000e+00 
3.3403290e-06 -3.4358220e-04 0.0000000e+00 
1.1320371e-05 -3.4357218e-04 0.0000000e+00 
-1.2470338e-05 -3.5415935e-04 0.0000000e+00 
-4.5554235e-06 -3.5418620e-04 0.0000000e+00 
3.3503365e-06 -3.5419389e-04 0.0000000e+00 
1.1259613e-05 -3.5418155e-04 0.0000000e+00 
-1.2301362e-05 -3.6466192e-04 0.0000000e+00 
-4.4670518e-06 -3.6469440e-04 0.0000000e+00 
3.3588029e-06 -3.6470442e-04 0.0000000e+00 
1.1187992e-05 -3.6469298e-04 0.0000000e+00 
-1.2116106e-05 -3.7505405e-04 0.0000000e+00 
-4.3710489e-06 -3.7508904e-04 0.0000000e+00 
3.3660484e-06 -3.7510021e-04 0.0000000e+00 
1.1105951e-05 -3.7508677e-04 0.0000000e+00 
-1.1915382e-05 -3.8531765e-04 0.0000000e+00 
-4.2680081e-06 -3.8535764e-04 0.0000000e+00 
3.3721700e-06 -3.8537093e-04 0.0000000e+00 
1.1014965e-05 -3.8535845e-04 0.0000000e+00 
-1.1700892e-05 -3.9544876e-04 0.0000000e+00 
-4.1583588e-06 -3.9549080e-04 0.0000000e+00 
3.3775201e-06 -3.9550515e-04 0.0000000e+00 
1.0915492e-05 -3.9549104e-04 0.0000000e+00 
-1.1473524e-05 -4.0543169e-04 0.0000000e+00 
-4.0426880e-06 -4.0547817e-04 0.0000000e+00 
3.3822625e-06 -4.0549449e-04 0.0000000e+00 
1.0809048e-05 -4.0548154e-04 0.0000000e+00 
-1.1235004e-05 -4.1526432e-04 0.0000000e+00 
-3.9214401e-06 -4.1531239e-04 0.0000000e+00 
3.3867569e-06 -4.1532966e-04 0.0000000e+00 
1.0696237e-05 -4.1531545e-04 0.0000000e+00 
-1.0986212e-05 -4.2493352e-04 0.0000000e+00 
-3.7952608e-06 -4.2498531e-04 0.0000000e+00 
3.3911368e-06 -4.2500434e-04 0.0000000e+00 
1.0578603e-05 -4.2499141e-04 0.0000000e+00 
-1.0728951e-05 -4.3443871e-04 0.0000000e+00 
-3.6646321e-06 -4.3449166e-04 0.0000000e+00 
3.3957274e-06 -4.3451141e-04 0.0000000e+00 
1.0456676e-05 -4.3449762e-04 0.0000000e+00 
-1.0463905e-05 -4.4376942e-04 0.0000000e+00 
-3.5302907e-06 -4.4382528e-04 0.0000000e+00 
3.4005500e-06 -4.4384680e-04 0.0000000e+00 
1.0332182e-05 -4.4383425e-04 0.0000000e+00 
-1.0193011e-05 -4.5292443e-04 0.0000000e+00 
-3.3920480e-06 -4.5298269e-04 0.0000000e+00 
3.4065308e-06 -4.5300594e-04 0.0000000e+00 
1.0205368e-05 -4.5299451e-04 0.0000000e+00 
-9.9175105e-06 -4.6190267e-04 0.0000000e+00 
-3.2511513e-06 -4.6196146e-04 0.0000000e+00 
3.4131466e-06 -4.6198518e-04 0.0000000e+00 
1.0077136e-05 -4.6197341e-04 0.0000000e+00 
-9.6381605e-06 -4.7069776e-04 0.0000000e+00 
-3.1081693e-06 -4.7075844e-04 0.0000000e+00 
3.4204855e-06 -4.7078325e-04 0.0000000e+00 
9.9487351e-06 -4.7077276e-04 0.0000000e+00 
-9.3566509e-06 -4.7931218e-04 0.0000000e+00 
-2.9634143e-06 -4.7937297e-04 0.0000000e+00 
3.4288674e-06 -4.7939826e-04 0.0000000e+00 
9.8203416e-06 -4.7938770e-04 0.0000000e+00 
-9.0735248e-06 -4.8774191e-04 0.0000000e+00 
-2.8174391e-06 -4.8780402e-04 0.0000000e+00 
3.4383238e-06 -4.8783022e-04 0.0000000e+00 
9.6931874e-06 -4.8782096e-04 0.0000000e+00 
-8.7902123e-06 -4.9599046e-04 0.0000000e+00 
-2.6705611e-06 -4.9605237e-04 0.0000000e+00 
3.4490885e-06 -4.9607893e-04 0.0000000e+00 
9.5674864e-06 -4.9606986e-04 0.0000000e+00 
-8.5071651e-06 -5.0405583e-04 0.0000000e+00 
-2.5232756e-06 -5.0411852e-04 0.0000000e+00 
3.4611688e-06 -5.0414579e-04 0.0000000e+00 
9.4443113e-06 -5.0413802e-04 0.0000000e+00 
-8.2256433e-06 -5.1194231e-04 0.0000000e+00 
-2.3758518e-06 -5.1200453e-04 0.0000000e+00 
3.4747601e-06 -5.1203206e-04 0.0000000e+00 
9.3237796e-06 -5.1202469e-04 0.0000000e+00 
-7.9459921e-06 -5.1964966e-04 0.0000000e+00 
-2.2287166e-06 -5.1971221e-04 0.0000000e+00 
3.4898463e-06 -5.1974027e-04 0.0000000e+00 
9.2068031e-06 -5.1973418e-04 0.0000000e+00 
-7.6692682e-06 -5.2718279e-04 0.0000000e+00 
-2.0820902e-06 -5.2724465e-04 0.0000000e+00 
3.5065779e-06 -5.2727290e-04 0.0000000e+00 
9.0934163e-06 -5.2726737e-04 0.0000000e+00 
-7.3956991e-06 -5.3454292e-04 0.0000000e+00 
-1.9363291e-06 -5.3460473e-04 0.0000000e+00 
3.5249143e-06 -5.3463336e-04 0.0000000e+00 
8.9843557e-06 -5.3462907e-04 0.0000000e+00 
-7.1261504e-06 -5.4173538e-04 0.0000000e+00 
-1.7915993e-06 -5.4179634e-04 0.0000000e+00 
3.5449577e-06 -5.4182507e-04 0.0000000e+00 
8.8795632e-06 -5.4182146e-04 0.0000000e+00 
-6.8607178e-06 -5.4876253e-04 0.0000000e+00 
-1.6481948e-06 -5.4882313e-04 0.0000000e+00 
3.5666493e-06 -5.4885211e-04 0.0000000e+00 
8.7795882e-06 -5.4884967e-04 0.0000000e+00 
-6.6001134e-06 -5.5562988e-04 0.0000000e+00 
-1.5062354e-06 -5.5568951e-04 0.0000000e+00 
3.5900410e-06 -5.5571851e-04 0.0000000e+00 
8.6843322e-06 -5.5571683e-04 0.0000000e+00 
-6.3442898e-06 -5.6234066e-04 0.0000000e+00 
-1.3659760e-06 -5.6239966e-04 0.0000000e+00 
3.6150386e-06 -5.6242880e-04 0.0000000e+00 
8.5942121e-06 -5.6242820e-04 0.0000000e+00 
-6.0937410e-06 -5.6890003e-04 0.0000000e+00 
-1.2274282e-06 -5.6895824e-04 0.0000000e+00 
3.6417083e-06 -5.6898750e-04 0.0000000e+00 
8.5090597e-06 -5.6898788e-04 0.0000000e+00 
-5.8487388e-06 -5.7531286e-04 0.0000000e+00 
-1.0908246e-06 -5.7537001e-04 0.0000000e+00 
3.6698952e-06 -5.7539918e-04 0.0000000e+00 
8.4288007e-06 -5.7540034e-04 0.0000000e+00 
-5.6091582e-06 -5.8158326e-04 0.0000000e+00 
-9.5629313e-07 -5.8163951e-04 0.0000000e+00 
3.6994988e-06 -5.8166863e-04 0.0000000e+00 
8.3535927e-06 -5.8167070e-04 0.0000000e+00 
-5.3752814e-06 -5.8771631e-04 0.0000000e+00 
-8.2384752e-07 -5.8777148e-04 0.0000000e+00 
3.7305053e-06 -5.8780049e-04 0.0000000e+00 
8.2831658e-06 -5.8780333e-04 0.0000000e+00 
-5.1469529e-06 -5.9371637e-04 0.0000000e+00 
-6.9358318e-07 -5.9377056e-04 0.0000000e+00 
3.7628068e-06 -5.9379945e-04 0.0000000e+00 
8.2176374e-06 -5.9380309e-04 0.0000000e+00 
-4.9243940e-06 -5.9958831e-04 0.0000000e+00 
-5.6550395e-07 -5.9964143e-04 0.0000000e+00 
3.7963694e-06 -5.9967016e-04 0.0000000e+00 
8.1567147e-06 -5.9967454e-04 0.0000000e+00 
-4.7074126e-06 -6.0533662e-04 0.0000000e+00 
-4.3968805e-07 -6.0538867e-04 0.0000000e+00 
3.8310879e-06 -6.0541723e-04 0.0000000e+00 
8.1004459e-06 -6.0542231e-04 0.0000000e+00 
-4.4961605e-06 -6.1096584e-04 0.0000000e+00 
-3.1612739e-07 -6.1101683e-04 0.0000000e+00 
3.8669175e-06 -6.1104520e-04 0.0000000e+00 
8.0485859e-06 -6.1105098e-04 0.0000000e+00 
-4.2904385e-06 -6.1648051e-04 0.0000000e+00 
-1.9487859e-07 -6.1653039e-04 0.0000000e+00 
3.9037540e-06 -6.1655852e-04 0.0000000e+00 
8.0011557e-06 -6.1656492e-04 0.0000000e+00 
-4.0903740e-06 -6.2188486e-04 0.0000000e+00 
-7.5925776e-08 -6.2193370e-04 0.0000000e+00 
3.9415530e-06 -6.2196162e-04 0.0000000e+00 
7.9578350e-06 -6.2196867e-04 0.0000000e+00 
-3.8957849e-06 -6.2718342e-04 0.0000000e+00 
4.0686832e-08 -6.2723110e-04 0.0000000e+00 
3.9802131e-06 -6.2725874e-04 0.0000000e+00 
7.9186274e-06 -6.2726630e-04 0.0000000e+00 
-3.7067232e-06 -6.3238012e-04 0.0000000e+00 
1.5497456e-07 -6.3242679e-04 0.0000000e+00 
4.0196898e-06 -6.3245418e-04 0.0000000e+00 
7.8833452e-06 -6.3246236e-04 0.0000000e+00 
-3.5230255e-06 -6.3747944e-04 0.0000000e+00 
2.6692923e-07 -6.3752497e-04 0.0000000e+00 
4.0599125e-06 -6.3755206e-04 0.0000000e+00 
7.8519529e-06 -6.3756070e-04 0.0000000e+00 
-3.3447133e-06 -6.4248511e-04 0.0000000e+00 
3.7657670e-07 -6.4252964e-04 0.0000000e+00 
4.1008403e-06 -6.4255649e-04 0.0000000e+00 
7.8241882e-06 -6.4256570e-04 0.0000000e+00 
-3.1716208e-06 -6.4740147e-04 0.0000000e+00 
4.8390257e-07 -6.4744488e-04 0.0000000e+00 
4.1423777e-06 -6.4747134e-04 0.0000000e+00 
7.8000160e-06 -6.4748092e-04 0.0000000e+00 
-3.0037249e-06 -6.5223228e-04 0.0000000e+00 
5.8883891e-07 -6.5227451e-04 0.0000000e+00 
4.1843834e-06 -6.5230058e-04 0.0000000e+00 
7.7792275e-06 -6.5231046e-04 0.0000000e+00 
-2.8409975e-06 -6.5698096e-04 0.0000000e+00 
6.9146910e-07 -6.5702225e-04 0.0000000e+00 
4.2268578e-06 -6.5704804e-04 0.0000000e+00 
7.7616245e-06 -6.5705841e-04 0.0000000e+00 
-2.6832258e-06 -6.6165173e-04 0.0000000e+00 
7.9179095e-07 -6.6169185e-04 0.0000000e+00 
4.2697236e-06 -6.6171725e-04 0.0000000e+00 
7.7471228e-06 -6.6172787e-04 0.0000000e+00 
-2.5303869e-06 -6.6624750e-04 0.0000000e+00 
8.8983414e-07 -6.6628672e-04 0.0000000e+00 
4.3129278e-06 -6.6631181e-04 0.0000000e+00 
7.7355316e-06 -6.6632288e-04 0.0000000e+00 
-2.3823383e-06 -6.7077230e-04 0.0000000e+00 
9.8561676e-07 -6.7081037e-04 0.0000000e+00 
4.3563955e-06 -6.7083506e-04 0.0000000e+00 
7.7267851e-06 -6.7084630e-04 0.0000000e+00 
-2.2389616e-06 -6.7522882e-04 0.0000000e+00 
1.0791671e-06 -6.7526603e-04 0.0000000e+00 
4.4000846e-06 -6.7529041e-04 0.0000000e+00 
7.7206589e-06 -6.7530205e-04 0.0000000e+00 
-2.1001313e-06 -6.7962086e-04 0.0000000e+00 
1.1705149e-06 -6.7965699e-04 0.0000000e+00 
4.4439414e-06 -6.7968097e-04 0.0000000e+00 
7.7170749e-06 -6.7969272e-04 0.0000000e+00 
-1.9658254e-06 -6.8395102e-04 0.0000000e+00 
1.2596922e-06 -6.8398632e-04 0.0000000e+00 
4.4879180e-06 -6.8400998e-04 0.0000000e+00 
7.7159255e-06 -6.8402209e-04 0.0000000e+00 
-1.8358559e-06 -6.8822294e-04 0.0000000e+00 
1.3466991e-06 -6.8825714e-04 0.0000000e+00 
4.5319550e-06 -6.8828038e-04 0.0000000e+00 
7.7171072e-06 -6.8829258e-04 0.0000000e+00 
-1.7102001e-06 -6.9243879e-04 0.0000000e+00 
1.4315723e-06 -6.9247220e-04 0.0000000e+00 
4.5760099e-06 -6.9249512e-04 0.0000000e+00 
7.7203633e-06 -6.9250762e-04 0.0000000e+00 
-1.5887414e-06 -6.9660207e-04 0.0000000e+00 
1.5143283e-06 -6.9663442e-04 0.0000000e+00 
4.6199992e-06 -6.9665687e-04 0.0000000e+00 
7.7256443e-06 -6.9666935e-04 0.0000000e+00 
-1.4713367e-06 -7.0071482e-04 0.0000000e+00 
1.5949960e-06 -7.0074640e-04 0.0000000e+00 
4.6638827e-06 -7.0076852e-04 0.0000000e+00 
7.7328162e-06 -7.0078127e-04 0.0000000e+00 
-1.3578492e-06 -7.0478026e-04 0.0000000e+00 
1.6736241e-06 -7.0481086e-04 0.0000000e+00 
4.7076367e-06 -7.0483255e-04 0.0000000e+00 
7.7417441e-06 -7.0484527e-04 0.0000000e+00 
-1.2482460e-06 -7.0880033e-04 0.0000000e+00 
1.7502645e-06 -7.0883021e-04 0.0000000e+00 
4.7512130e-06 -7.0885159e-04 0.0000000e+00 
7.7523235e-06 -7.0886452e-04 0.0000000e+00 
-1.1423500e-06 -7.1277808e-04 0.0000000e+00 
1.8249416e-06 -7.1280699e-04 0.0000000e+00 
4.7945615e-06 -7.1282787e-04 0.0000000e+00 
7.7643870e-06 -7.1284075e-04 0.0000000e+00 
-1.0399936e-06 -7.1671532e-04 0.0000000e+00 
1.8975812e-06 -7.1674327e-04 0.0000000e+00 
4.8375259e-06 -7.1676366e-04 0.0000000e+00 
7.7777519e-06 -7.1677642e-04 0.0000000e+00 
-9.4116141e-07 -7.2061378e-04 0.0000000e+00 
1.9683266e-06 -7.2064108e-04 0.0000000e+00 
4.8801572e-06 -7.2066114e-04 0.0000000e+00 
7.7923355e-06 -7.2067406e-04 0.0000000e+00 
-8.4575046e-07 -7.2447624e-04 0.0000000e+00 
2.0372070e-06 -7.2450261e-04 0.0000000e+00 
4.9224383e-06 -7.2452225e-04 0.0000000e+00 
7.8080540e-06 -7.2453505e-04 0.0000000e+00 
-7.5359272e-07 -7.2830393e-04 0.0000000e+00 
2.1042329e-06 -7.2832968e-04 0.0000000e+00 
4.9643367e-06 -7.2834897e-04 0.0000000e+00 
7.8248308e-06 -7.2836190e-04 0.0000000e+00 
-6.6465757e-07 -7.3209938e-04 0.0000000e+00 
2.1694378e-06 -7.3212427e-04 0.0000000e+00 
5.0058146e-06 -7.3214313e-04 0.0000000e+00 
7.8426555e-06 -7.3215591e-04 0.0000000e+00 
-5.7894628e-07 -7.3586392e-04 0.0000000e+00 
2.2328348e-06 -7.3588819e-04 0.0000000e+00 
5.0468579e-06 -7.3590672e-04 0.0000000e+00 
7.8613658e-06 -7.3591960e-04 0.0000000e+00 