# vtk DataFile Version 4.0
vtk output
ASCII
DATASET UNSTRUCTURED_GRID
POINTS 604 float
5.5000000e+00 5.9700000e+00 0.0000000e+00 
5.5000000e+00 5.9900000e+00 0.0000000e+00 
5.5266667e+00 5.9700000e+00 0.0000000e+00 
5.5266667e+00 5.9900000e+00 0.0000000e+00 
5.5000000e+00 6.0100000e+00 0.0000000e+00 
5.5266667e+00 6.0100000e+00 0.0000000e+00 
5.5533333e+00 5.9700000e+00 0.0000000e+00 
5.5533333e+00 5.9900000e+00 0.0000000e+00 
5.5000000e+00 6.0300000e+00 0.0000000e+00 
5.5266667e+00 6.0300000e+00 0.0000000e+00 
5.5533333e+00 6.0100000e+00 0.0000000e+00 
5.5800000e+00 5.9700000e+00 0.0000000e+00 
5.5533333e+00 6.0300000e+00 0.0000000e+00 
5.5800000e+00 5.9900000e+00 0.0000000e+00 
5.5800000e+00 6.0100000e+00 0.0000000e+00 
5.5800000e+00 6.0300000e+00 0.0000000e+00 
5.6066667e+00 5.9700000e+00 0.0000000e+00 
5.6066667e+00 5.9900000e+00 0.0000000e+00 
5.6066667e+00 6.0100000e+00 0.0000000e+00 
5.6066667e+00 6.0300000e+00 0.0000000e+00 
5.6333333e+00 5.9700000e+00 0.0000000e+00 
5.6333333e+00 5.9900000e+00 0.0000000e+00 
5.6333333e+00 6.0100000e+00 0.0000000e+00 
5.6333333e+00 6.0300000e+00 0.0000000e+00 
5.6600000e+00 5.9700000e+00 0.0000000e+00 
5.6600000e+00 5.9900000e+00 0.0000000e+00 
5.6600000e+00 6.0100000e+00 0.0000000e+00 
5.6600000e+00 6.0300000e+00 0.0000000e+00 
5.6866667e+00 5.9700000e+00 0.0000000e+00 
5.6866667e+00 5.9900000e+00 0.0000000e+00 
5.6866667e+00 6.0100000e+00 0.0000000e+00 
5.6866667e+00 6.0300000e+00 0.0000000e+00 
5.7133333e+00 5.9700000e+00 0.0000000e+00 
5.7133333e+00 5.9900000e+00 0.0000000e+00 
5.7133333e+00 6.0100000e+00 0.0000000e+00 
5.7133333e+00 6.0300000e+00 0.0000000e+00 
5.7400000e+00 5.9700000e+00 0.0000000e+00 
5.7400000e+00 5.9900000e+00 0.0000000e+00 
5.7400000e+00 6.0100000e+00 0.0000000e+00 
5.7400000e+00 6.0300000e+00 0.0000000e+00 
5.7666667e+00 5.9700000e+00 0.0000000e+00 
5.7666667e+00 5.9900000e+00 0.0000000e+00 
5.7666667e+00 6.0100000e+00 0.0000000e+00 
5.7666667e+00 6.0300000e+00 0.0000000e+00 
5.7933333e+00 5.9700000e+00 0.0000000e+00 
5.7933333e+00 5.9900000e+00 0.0000000e+00 
5.7933333e+00 6.0100000e+00 0.0000000e+00 
5.7933333e+00 6.0300000e+00 0.0000000e+00 
5.8200000e+00 5.9700000e+00 0.0000000e+00 
5.8200000e+00 5.9900000e+00 0.0000000e+00 
5.8200000e+00 6.0100000e+00 0.0000000e+00 
5.8200000e+00 6.0300000e+00 0.0000000e+00 
5.8466667e+00 5.9700000e+00 0.0000000e+00 
5.8466667e+00 5.9900000e+00 0.0000000e+00 
5.8466667e+00 6.0100000e+00 0.0000000e+00 
5.8466667e+00 6.0300000e+00 0.0000000e+00 
5.8733333e+00 5.9700000e+00 0.0000000e+00 
5.8733333e+00 5.9900000e+00 0.0000000e+00 
5.8733333e+00 6.0100000e+00 0.0000000e+00 
5.8733333e+00 6.0300000e+00 0.0000000e+00 
5.9000000e+00 5.9700000e+00 0.0000000e+00 
5.9000000e+00 5.9900000e+00 0.0000000e+00 
5.9000000e+00 6.0100000e+00 0.0000000e+00 
5.9000000e+00 6.0300000e+00 0.0000000e+00 
5.9266667e+00 5.9700000e+00 0.0000000e+00 
5.9266667e+00 5.9900000e+00 0.0000000e+00 
5.9266667e+00 6.0100000e+00 0.0000000e+00 
5.9266667e+00 6.0300000e+00 0.0000000e+00 
5.9533333e+00 5.9700000e+00 0.0000000e+00 
5.9533333e+00 5.9900000e+00 0.0000000e+00 
5.9533333e+00 6.0100000e+00 0.0000000e+00 
5.9533333e+00 6.0300000e+00 0.0000000e+00 
5.9800000e+00 5.9700000e+00 0.0000000e+00 
5.9800000e+00 5.9900000e+00 0.0000000e+00 
5.9800000e+00 6.0100000e+00 0.0000000e+00 
5.9800000e+00 6.0300000e+00 0.0000000e+00 
6.0066667e+00 5.9700000e+00 0.0000000e+00 
6.0066667e+00 5.9900000e+00 0.0000000e+00 
6.0066667e+00 6.0100000e+00 0.0000000e+00 
6.0066667e+00 6.0300000e+00 0.0000000e+00 
6.0333333e+00 5.9700000e+00 0.0000000e+00 
6.0333333e+00 5.9900000e+00 0.0000000e+00 
6.0333333e+00 6.0100000e+00 0.0000000e+00 
6.0333333e+00 6.0300000e+00 0.0000000e+00 
6.0600000e+00 5.9700000e+00 0.0000000e+00 
6.0600000e+00 5.9900000e+00 0.0000000e+00 
6.0600000e+00 6.0100000e+00 0.0000000e+00 
6.0600000e+00 6.0300000e+00 0.0000000e+00 
6.0866667e+00 5.9700000e+00 0.0000000e+00 
6.0866667e+00 5.9900000e+00 0.0000000e+00 
6.0866667e+00 6.0100000e+00 0.0000000e+00 
6.0866667e+00 6.0300000e+00 0.0000000e+00 
6.1133333e+00 5.9700000e+00 0.0000000e+00 
6.1133333e+00 5.9900000e+00 0.0000000e+00 
6.1133333e+00 6.0100000e+00 0.0000000e+00 
6.1133333e+00 6.0300000e+00 0.0000000e+00 
6.1400000e+00 5.9700000e+00 0.0000000e+00 
6.1400000e+00 5.9900000e+00 0.0000000e+00 
6.1400000e+00 6.0100000e+00 0.0000000e+00 
6.1400000e+00 6.0300000e+00 0.0000000e+00 
6.1666667e+00 5.9700000e+00 0.0000000e+00 
6.1666667e+00 5.9900000e+00 0.0000000e+00 
6.1666667e+00 6.0100000e+00 0.0000000e+00 
6.1666667e+00 6.0300000e+00 0.0000000e+00 
6.1933333e+00 5.9700000e+00 0.0000000e+00 
6.1933333e+00 5.9900000e+00 0.0000000e+00 
6.1933333e+00 6.0100000e+00 0.0000000e+00 
6.1933333e+00 6.0300000e+00 0.0000000e+00 
6.2200000e+00 5.9700000e+00 0.0000000e+00 
6.2200000e+00 5.9900000e+00 0.0000000e+00 
6.2200000e+00 6.0100000e+00 0.0000000e+00 
6.2200000e+00 6.0300000e+00 0.0000000e+00 
6.2466667e+00 5.9700000e+00 0.0000000e+00 
6.2466667e+00 5.9900000e+00 0.0000000e+00 
6.2466667e+00 6.0100000e+00 0.0000000e+00 
6.2466667e+00 6.0300000e+00 0.0000000e+00 
6.2733333e+00 5.9700000e+00 0.0000000e+00 
6.2733333e+00 5.9900000e+00 0.0000000e+00 
6.2733333e+00 6.0100000e+00 0.0000000e+00 
6.2733333e+00 6.0300000e+00 0.0000000e+00 
6.3000000e+00 5.9700000e+00 0.0000000e+00 
6.3000000e+00 5.9900000e+00 0.0000000e+00 
6.3000000e+00 6.0100000e+00 0.0000000e+00 
6.3000000e+00 6.0300000e+00 0.0000000e+00 
6.3266667e+00 5.9700000e+00 0.0000000e+00 
6.3266667e+00 5.9900000e+00 0.0000000e+00 
6.3266667e+00 6.0100000e+00 0.0000000e+00 
6.3266667e+00 6.0300000e+00 0.0000000e+00 
6.3533333e+00 5.9700000e+00 0.0000000e+00 
6.3533333e+00 5.9900000e+00 0.0000000e+00 
6.3533333e+00 6.0100000e+00 0.0000000e+00 
6.3533333e+00 6.0300000e+00 0.0000000e+00 
6.3800000e+00 5.9700000e+00 0.0000000e+00 
6.3800000e+00 5.9900000e+00 0.0000000e+00 
6.3800000e+00 6.0100000e+00 0.0000000e+00 
6.3800000e+00 6.0300000e+00 0.0000000e+00 
6.4066667e+00 5.9700000e+00 0.0000000e+00 
6.4066667e+00 5.9900000e+00 0.0000000e+00 
6.4066667e+00 6.0100000e+00 0.0000000e+00 
6.4066667e+00 6.0300000e+00 0.0000000e+00 
6.4333333e+00 5.9700000e+00 0.0000000e+00 
6.4333333e+00 5.9900000e+00 0.0000000e+00 
6.4333333e+00 6.0100000e+00 0.0000000e+00 
6.4333333e+00 6.0300000e+00 0.0000000e+00 
6.4600000e+00 5.9700000e+00 0.0000000e+00 
6.4600000e+00 5.9900000e+00 0.0000000e+00 
6.4600000e+00 6.0100000e+00 0.0000000e+00 
6.4600000e+00 6.0300000e+00 0.0000000e+00 
6.4866667e+00 5.9700000e+00 0.0000000e+00 
6.4866667e+00 5.9900000e+00 0.0000000e+00 
6.4866667e+00 6.0100000e+00 0.0000000e+00 
6.4866667e+00 6.0300000e+00 0.0000000e+00 
6.5133333e+00 5.9700000e+00 0.0000000e+00 
6.5133333e+00 5.9900000e+00 0.0000000e+00 
6.5133333e+00 6.0100000e+00 0.0000000e+00 
6.5133333e+00 6.0300000e+00 0.0000000e+00 
6.5400000e+00 5.9700000e+00 0.0000000e+00 
6.5400000e+00 5.9900000e+00 0.0000000e+00 
6.5400000e+00 6.0100000e+00 0.0000000e+00 
6.5400000e+00 6.0300000e+00 0.0000000e+00 
6.5666667e+00 5.9700000e+00 0.0000000e+00 
6.5666667e+00 5.9900000e+00 0.0000000e+00 
6.5666667e+00 6.0100000e+00 0.0000000e+00 
6.5666667e+00 6.0300000e+00 0.0000000e+00 
6.5933333e+00 5.9700000e+00 0.0000000e+00 
6.5933333e+00 5.9900000e+00 0.0000000e+00 
6.5933333e+00 6.0100000e+00 0.0000000e+00 
6.5933333e+00 6.0300000e+00 0.0000000e+00 
6.6200000e+00 5.9700000e+00 0.0000000e+00 
6.6200000e+00 5.9900000e+00 0.0000000e+00 
6.6200000e+00 6.0100000e+00 0.0000000e+00 
6.6200000e+00 6.0300000e+00 0.0000000e+00 
6.6466667e+00 5.9700000e+00 0.0000000e+00 
6.6466667e+00 5.9900000e+00 0.0000000e+00 
6.6466667e+00 6.0100000e+00 0.0000000e+00 
6.6466667e+00 6.0300000e+00 0.0000000e+00 
6.6733333e+00 5.9700000e+00 0.0000000e+00 
6.6733333e+00 5.9900000e+00 0.0000000e+00 
6.6733333e+00 6.0100000e+00 0.0000000e+00 
6.6733333e+00 6.0300000e+00 0.0000000e+00 
6.7000000e+00 5.9700000e+00 0.0000000e+00 
6.7000000e+00 5.9900000e+00 0.0000000e+00 
6.7000000e+00 6.0100000e+00 0.0000000e+00 
6.7000000e+00 6.0300000e+00 0.0000000e+00 
6.7266667e+00 5.9700000e+00 0.0000000e+00 
6.7266667e+00 5.9900000e+00 0.0000000e+00 
6.7266667e+00 6.0100000e+00 0.0000000e+00 
6.7266667e+00 6.0300000e+00 0.0000000e+00 
6.7533333e+00 5.9700000e+00 0.0000000e+00 
6.7533333e+00 5.9900000e+00 0.0000000e+00 
6.7533333e+00 6.0100000e+00 0.0000000e+00 
6.7533333e+00 6.0300000e+00 0.0000000e+00 
6.7800000e+00 5.9700000e+00 0.0000000e+00 
6.7800000e+00 5.9900000e+00 0.0000000e+00 
6.7800000e+00 6.0100000e+00 0.0000000e+00 
6.7800000e+00 6.0300000e+00 0.0000000e+00 
6.8066667e+00 5.9700000e+00 0.0000000e+00 
6.8066667e+00 5.9900000e+00 0.0000000e+00 
6.8066667e+00 6.0100000e+00 0.0000000e+00 
6.8066667e+00 6.0300000e+00 0.0000000e+00 
6.8333333e+00 5.9700000e+00 0.0000000e+00 
6.8333333e+00 5.9900000e+00 0.0000000e+00 
6.8333333e+00 6.0100000e+00 0.0000000e+00 
6.8333333e+00 6.0300000e+00 0.0000000e+00 
6.8600000e+00 5.9700000e+00 0.0000000e+00 
6.8600000e+00 5.9900000e+00 0.0000000e+00 
6.8600000e+00 6.0100000e+00 0.0000000e+00 
6.8600000e+00 6.0300000e+00 0.0000000e+00 
6.8866667e+00 5.9700000e+00 0.0000000e+00 
6.8866667e+00 5.9900000e+00 0.0000000e+00 
6.8866667e+00 6.0100000e+00 0.0000000e+00 
6.8866667e+00 6.0300000e+00 0.0000000e+00 
6.9133333e+00 5.9700000e+00 0.0000000e+00 
6.9133333e+00 5.9900000e+00 0.0000000e+00 
6.9133333e+00 6.0100000e+00 0.0000000e+00 
6.9133333e+00 6.0300000e+00 0.0000000e+00 
6.9400000e+00 5.9700000e+00 0.0000000e+00 
6.9400000e+00 5.9900000e+00 0.0000000e+00 
6.9400000e+00 6.0100000e+00 0.0000000e+00 
6.9400000e+00 6.0300000e+00 0.0000000e+00 
6.9666667e+00 5.9700000e+00 0.0000000e+00 
6.9666667e+00 5.9900000e+00 0.0000000e+00 
6.9666667e+00 6.0100000e+00 0.0000000e+00 
6.9666667e+00 6.0300000e+00 0.0000000e+00 
6.9933333e+00 5.9700000e+00 0.0000000e+00 
6.9933333e+00 5.9900000e+00 0.0000000e+00 
6.9933333e+00 6.0100000e+00 0.0000000e+00 
6.9933333e+00 6.0300000e+00 0.0000000e+00 
7.0200000e+00 5.9700000e+00 0.0000000e+00 
7.0200000e+00 5.9900000e+00 0.0000000e+00 
[...]
POINT_DATA 604
FIELD FieldData 2
DISPLACEMENT 3 604  float
0.0000000e+00 0.0000000e+00 0.0000000e+00 
0.0000000e+00 0.0000000e+00 0.0000000e+00 
-1.6897610e-04 -9.8758644e-05 0.0000000e+00 
-5.4459346e-05 -6.3589762e-05 0.0000000e+00 
0.0000000e+00 0.0000000e+00 0.0000000e+00 
5.2969989e-05 -6.3998288e-05 0.0000000e+00 
-3.4370206e-04 -3.2051522e-04 0.0000000e+00 
-1.1625581e-04 -2.9225887e-04 0.0000000e+00 
0.0000000e+00 0.0000000e+00 0.0000000e+00 
1.6722686e-04 -9.9840012e-05 0.0000000e+00 
1.1158229e-04 -2.9371899e-04 0.0000000e+00 
-5.1965466e-04 -6.9919091e-04 0.0000000e+00 
3.3837755e-04 -3.2468884e-04 0.0000000e+00 
-1.7663575e-04 -6.7203512e-04 0.0000000e+00 
1.6532660e-04 -6.7511211e-04 0.0000000e+00 
5.0729947e-04 -7.0823249e-04 0.0000000e+00 
-6.9717397e-04 -1.2292199e-03 0.0000000e+00 
-2.3976317e-04 -1.2045820e-03 0.0000000e+00 
2.1656041e-04 -1.2099343e-03 0.0000000e+00 
6.7259361e-04 -1.2451056e-03 0.0000000e+00 
-8.7722315e-04 -1.9103150e-03 0.0000000e+00 
-3.0599249e-04 -1.8887581e-03 0.0000000e+00 
2.6395890e-04 -1.8970259e-03 0.0000000e+00 
8.3348321e-04 -1.9349516e-03 0.0000000e+00 
-1.0605919e-03 -2.7415823e-03 0.0000000e+00 
-3.7620707e-04 -2.7237440e-03 0.0000000e+00 
3.0672508e-04 -2.7355506e-03 0.0000000e+00 
9.8907869e-04 -2.7768432e-03 0.0000000e+00 
-1.2480739e-03 -3.7221542e-03 0.0000000e+00 
-4.5121566e-04 -3.7086517e-03 0.0000000e+00 
3.4401821e-04 -3.7246093e-03 0.0000000e+00 
1.1385264e-03 -3.7698762e-03 0.0000000e+00 
-1.4404461e-03 -4.8511297e-03 0.0000000e+00 
-5.3181697e-04 -4.8425691e-03 0.0000000e+00 
3.7501945e-04 -4.8632779e-03 0.0000000e+00 
1.2809862e-03 -4.9131138e-03 0.0000000e+00 
-1.6384695e-03 -6.1275811e-03 0.0000000e+00 
-6.1879303e-04 -6.1245557e-03 0.0000000e+00 
3.9892584e-04 -6.1506038e-03 0.0000000e+00 
1.4156345e-03 -6.2055916e-03 0.0000000e+00 
-1.8428889e-03 -7.5505532e-03 0.0000000e+00 
-7.1290929e-04 -7.5536440e-03 0.0000000e+00 
4.1495131e-04 -7.5856065e-03 0.0000000e+00 
1.5416642e-03 -7.6463160e-03 0.0000000e+00 
-2.0544321e-03 -9.1190642e-03 0.0000000e+00 
-8.1491417e-04 -9.1288388e-03 0.0000000e+00 
4.2232676e-04 -9.1672780e-03 0.0000000e+00 
1.6582865e-03 -9.2342662e-03 0.0000000e+00 
-2.2738094e-03 -1.0832105e-02 0.0000000e+00 
-9.2553860e-04 -1.0849118e-02 0.0000000e+00 
4.2030103e-04 -1.0894583e-02 0.0000000e+00 
1.7647288e-03 -1.0968393e-02 0.0000000e+00 
-2.5017138e-03 -1.2688640e-02 0.0000000e+00 
-1.0454957e-03 -1.2713432e-02 0.0000000e+00 
4.0814090e-04 -1.2766457e-02 0.0000000e+00 
1.8602387e-03 -1.2847621e-02 0.0000000e+00 
-2.7388205e-03 -1.4687609e-02 0.0000000e+00 
-1.1754802e-03 -1.4720705e-02 0.0000000e+00 
3.8513194e-04 -1.4781813e-02 0.0000000e+00 
1.9440816e-03 -1.4870845e-02 0.0000000e+00 
-2.9857863e-03 -1.6827923e-02 0.0000000e+00 
-1.3161685e-03 -1.6869837e-02 0.0000000e+00 
3.5057849e-04 -1.6939534e-02 0.0000000e+00 
2.0155432e-03 -1.7036937e-02 0.0000000e+00 
-3.2432494e-03 -1.9108471e-02 0.0000000e+00 
-1.4682179e-03 -1.9159700e-02 0.0000000e+00 
3.0380433e-04 -1.9238478e-02 0.0000000e+00 
2.0739281e-03 -1.9344740e-02 0.0000000e+00 
-3.5118292e-03 -2.1528114e-02 0.0000000e+00 
-1.6322663e-03 -2.1589142e-02 0.0000000e+00 
2.4415288e-04 -2.1677480e-02 0.0000000e+00 
2.1185608e-03 -2.1793074e-02 0.0000000e+00 
-3.7921260e-03 -2.4085694e-02 0.0000000e+00 
-1.8089322e-03 -2.4156987e-02 0.0000000e+00 
1.7098751e-04 -2.4255348e-02 0.0000000e+00 
2.1487873e-03 -2.4380732e-02 0.0000000e+00 
-4.0847208e-03 -2.6780023e-02 0.0000000e+00 
-1.9988143e-03 -2.6862034e-02 0.0000000e+00 
8.3691990e-05 -2.6970866e-02 0.0000000e+00 
2.1639731e-03 -2.7106484e-02 0.0000000e+00 
-4.3901748e-03 -2.9609896e-02 0.0000000e+00 
-2.2024912e-03 -2.9703062e-02 0.0000000e+00 
-1.8329165e-05 -2.9822797e-02 0.0000000e+00 
2.1635054e-03 -2.9969077e-02 0.0000000e+00 
-4.7090303e-03 -3.2574081e-02 0.0000000e+00 
-2.4205210e-03 -3.2678824e-02 0.0000000e+00 
-1.3565078e-04 -3.2809879e-02 0.0000000e+00 
2.1467944e-03 -3.2967234e-02 0.0000000e+00 
-5.0418088e-03 -3.5671329e-02 0.0000000e+00 
-2.6534415e-03 -3.5788054e-02 0.0000000e+00 
-2.6882665e-04 -3.5930831e-02 0.0000000e+00 
2.1132696e-03 -3.6099658e-02 0.0000000e+00 
-5.3890110e-03 -3.8900366e-02 0.0000000e+00 
-2.9017698e-03 -3.9029463e-02 0.0000000e+00 
-4.1838954e-04 -3.9184348e-02 0.0000000e+00 
2.0623823e-03 -3.9365029e-02 0.0000000e+00 
-5.7511176e-03 -4.2259901e-02 0.0000000e+00 
-3.1660016e-03 -4.2401744e-02 0.0000000e+00 
-5.8485125e-04 -4.2569105e-02 0.0000000e+00 
1.9936062e-03 -4.2762006e-02 0.0000000e+00 
-6.1285873e-03 -4.5748619e-02 0.0000000e+00 
-3.4466118e-03 -4.5903566e-02 0.0000000e+00 
-7.6870162e-04 -4.6083758e-02 0.0000000e+00 
1.9064340e-03 -4.6289228e-02 0.0000000e+00 
-6.5218592e-03 -4.9365188e-02 0.0000000e+00 
-3.7440538e-03 -4.9533580e-02 0.0000000e+00 
-9.7040899e-04 -4.9726940e-02 0.0000000e+00 
1.8003836e-03 -4.9945313e-02 0.0000000e+00 
-6.9313509e-03 -5.3108254e-02 0.0000000e+00 
-4.0587595e-03 -5.3290416e-02 0.0000000e+00 
-1.1904195e-03 -5.3497265e-02 0.0000000e+00 
1.6749947e-03 -5.3728858e-02 0.0000000e+00 
-7.3574596e-03 -5.6976447e-02 0.0000000e+00 
-4.3911397e-03 -5.7172686e-02 0.0000000e+00 
-1.4291573e-03 -5.7393329e-02 0.0000000e+00 
1.5298297e-03 -5.7638444e-02 0.0000000e+00 
-7.8005611e-03 -6.0968377e-02 0.0000000e+00 
-4.7415833e-03 -6.1178986e-02 0.0000000e+00 
-1.6870246e-03 -6.1413712e-02 0.0000000e+00 
1.3644731e-03 -6.1672633e-02 0.0000000e+00 
-8.2610105e-03 -6.5082639e-02 0.0000000e+00 
-5.1104579e-03 -6.5307893e-02 0.0000000e+00 
-1.9644015e-03 -6.5556974e-02 0.0000000e+00 
1.1785326e-03 -6.5829971e-02 0.0000000e+00 
-8.7391416e-03 -6.9317810e-02 0.0000000e+00 
-5.4981095e-03 -6.9557968e-02 0.0000000e+00 
-2.2616457e-03 -6.9821659e-02 0.0000000e+00 
9.7163798e-04 -7.0108985e-02 0.0000000e+00 
-9.2352674e-03 -7.3672452e-02 0.0000000e+00 
-5.9048623e-03 -7.3927757e-02 0.0000000e+00 
-2.5790930e-03 -7.4206297e-02 0.0000000e+00 
7.4344234e-04 -7.4508188e-02 0.0000000e+00 
-9.7496806e-03 -7.8145113e-02 0.0000000e+00 
-6.3310194e-03 -7.8415789e-02 0.0000000e+00 
-2.9170571e-03 -7.8709403e-02 0.0000000e+00 
4.9362148e-04 -7.9026079e-02 0.0000000e+00 
-1.0282652e-02 -8.2734324e-02 0.0000000e+00 
-6.7768623e-03 -8.3020583e-02 0.0000000e+00 
-3.2758296e-03 -8.3329476e-02 0.0000000e+00 
2.2187348e-04 -8.3661142e-02 0.0000000e+00 
-1.0834434e-02 -8.7438609e-02 0.0000000e+00 
-7.2426516e-03 -8.7740641e-02 0.0000000e+00 
-3.6556799e-03 -8.8065005e-02 0.0000000e+00 
-7.2081284e-05 -8.8411850e-02 0.0000000e+00 
-1.1405257e-02 -9.2256473e-02 0.0000000e+00 
-7.7286265e-03 -9.2574457e-02 0.0000000e+00 
-4.0568560e-03 -9.2914467e-02 0.0000000e+00 
-3.8849686e-04 -9.3276662e-02 0.0000000e+00 
-1.1995332e-02 -9.7186415e-02 0.0000000e+00 
-8.2350055e-03 -9.7520512e-02 0.0000000e+00 
-4.4795842e-03 -9.7876327e-02 0.0000000e+00 
-7.2760875e-04 -9.8254031e-02 0.0000000e+00 
-1.2604848e-02 -1.0222692e-01 0.0000000e+00 
-8.7619862e-03 -1.0257728e-01 0.0000000e+00 
-4.9240696e-03 -1.0294904e-01 0.0000000e+00 
-1.0896296e-03 -1.0334239e-01 0.0000000e+00 
-1.3233975e-02 -1.0737647e-01 0.0000000e+00 
-9.3097451e-03 -1.0774322e-01 0.0000000e+00 
-5.3904968e-03 -1.0813105e-01 0.0000000e+00 
-1.4747503e-03 -1.0854018e-01 0.0000000e+00 
-1.3882861e-02 -1.1263353e-01 0.0000000e+00 
-9.8784382e-03 -1.1301677e-01 0.0000000e+00 
-5.8790284e-03 -1.1342080e-01 0.0000000e+00 
-1.8831434e-03 -1.1384581e-01 0.0000000e+00 
-1.4551636e-02 -1.1799656e-01 0.0000000e+00 
-1.0468201e-02 -1.1839640e-01 0.0000000e+00 
-6.3898066e-03 -1.1881671e-01 0.0000000e+00 
-2.3149564e-03 -1.1925770e-01 0.0000000e+00 
-1.5240408e-02 -1.2346400e-01 0.0000000e+00 
-1.1079149e-02 -1.2388052e-01 0.0000000e+00 
-6.9229523e-03 -1.2431719e-01 0.0000000e+00 
-2.7703159e-03 -1.2477425e-01 0.0000000e+00 
-1.5949269e-02 -1.2903429e-01 0.0000000e+00 
-1.1711377e-02 -1.2946757e-01 0.0000000e+00 
-7.4785662e-03 -1.2992067e-01 0.0000000e+00 
-3.2493274e-03 -1.3039385e-01 0.0000000e+00 
-1.6678291e-02 -1.3470588e-01 0.0000000e+00 
-1.2364961e-02 -1.3515595e-01 0.0000000e+00 
-8.0567283e-03 -1.3562554e-01 0.0000000e+00 
-3.7520757e-03 -1.3611489e-01 0.0000000e+00 
-1.7427526e-02 -1.4047719e-01 0.0000000e+00 
-1.3039959e-02 -1.4094410e-01 0.0000000e+00 
-8.6574996e-03 -1.4143021e-01 0.0000000e+00 
-4.2786253e-03 -1.4193577e-01 0.0000000e+00 
-1.8197009e-02 -1.4634664e-01 0.0000000e+00 
-1.3736408e-02 -1.4683041e-01 0.0000000e+00 
-9.2809205e-03 -1.4733306e-01 0.0000000e+00 
-4.8290204e-03 -1.4785485e-01 0.0000000e+00 
-1.8986756e-02 -1.5231266e-01 0.0000000e+00 
-1.4454327e-02 -1.5281330e-01 0.0000000e+00 
-9.9270129e-03 -1.5333250e-01 0.0000000e+00 
-5.4032850e-03 -1.5387053e-01 0.0000000e+00 
-1.9796768e-02 -1.5837365e-01 0.0000000e+00 
-1.5193717e-02 -1.5889116e-01 0.0000000e+00 
-1.0595780e-02 -1.5942691e-01 0.0000000e+00 
-6.0014240e-03 -1.5998117e-01 0.0000000e+00 
-2.0627026e-02 -1.6452804e-01 0.0000000e+00 
-1.5954562e-02 -1.6506240e-01 0.0000000e+00 
-1.1287206e-02 -1.6561467e-01 0.0000000e+00 
-6.6234231e-03 -1.6618515e-01 0.0000000e+00 
-2.1477496e-02 -1.7077424e-01 0.0000000e+00 
-1.6736827e-02 -1.7132541e-01 0.0000000e+00 
-1.2001257e-02 -1.7189418e-01 0.0000000e+00 
-7.2692497e-03 -1.7248084e-01 0.0000000e+00 
-2.2348126e-02 -1.7711065e-01 0.0000000e+00 
-1.7540462e-02 -1.7767859e-01 0.0000000e+00 
-1.2737883e-02 -1.7826381e-01 0.0000000e+00 
-7.9388531e-03 -1.7886661e-01 0.0000000e+00 
-2.3238850e-02 -1.8353569e-01 0.0000000e+00 
-1.8365399e-02 -1.8412035e-01 0.0000000e+00 
-1.3497015e-02 -1.8472196e-01 0.0000000e+00 
-8.6321653e-03 -1.8534085e-01 0.0000000e+00 
-2.4149587e-02 -1.9004777e-01 0.0000000e+00 
-1.9211555e-02 -1.9064908e-01 0.0000000e+00 
-1.4278569e-02 -1.9126701e-01 0.0000000e+00 
-9.3490977e-03 -1.9190191e-01 0.0000000e+00 
-2.5080240e-02 -1.9664531e-01 0.0000000e+00 
-2.0078829e-02 -1.9726318e-01 0.0000000e+00 
-1.5082443e-02 -1.9789736e-01 0.0000000e+00 
-1.0089549e-02 -1.9854819e-01 0.0000000e+00 
-2.6030694e-02 -2.0332672e-01 0.0000000e+00 
-2.0967109e-02 -2.0396106e-01 0.0000000e+00 
-1.5908521e-02 -2.0461140e-01 0.0000000e+00 
-1.0853401e-02 -2.0527807e-01 0.0000000e+00 
-2.7000823e-02 -2.1009043e-01 0.0000000e+00 
-2.1876263e-02 -2.1074113e-01 0.0000000e+00 
-1.6756672e-02 -2.1140751e-01 0.0000000e+00 
-1.1640519e-02 -2.1208992e-01 0.0000000e+00 
-2.7990483e-02 -2.1693484e-01 0.0000000e+00 
-2.2806148e-02 -2.1760179e-01 0.0000000e+00 
-1.7626749e-02 -2.1828411e-01 0.0000000e+00 
-1.2450757e-02 -2.1898215e-01 0.0000000e+00 
-2.8999518e-02 -2.2385839e-01 0.0000000e+00 
-2.3756604e-02 -2.2454146e-01 0.0000000e+00 
-1.8518590e-02 -2.2523959e-01 0.0000000e+00 
-1.3283951e-02 -2.2595313e-01 0.0000000e+00 
-3.0027759e-02 -2.3085949e-01 0.0000000e+00 
-2.4727459e-02 -2.3155856e-01 0.0000000e+00 
-1.9432020e-02 -2.3227236e-01 0.0000000e+00 
-1.4139920e-02 -2.3300126e-01 0.0000000e+00 
-3.1075024e-02 -2.3793659e-01 0.0000000e+00 
-2.5718527e-02 -2.3865150e-01 0.0000000e+00 
-2.0366848e-02 -2.3938083e-01 0.0000000e+00 
-1.5018472e-02 -2.4012495e-01 0.0000000e+00 
-3.2141118e-02 -2.4508811e-01 0.0000000e+00 
-2.6729608e-02 -2.4581870e-01 0.0000000e+00 
-2.1322873e-02 -2.4656340e-01 0.0000000e+00 
-1.5919400e-02 -2.4732259e-01 0.0000000e+00 
-3.3225835e-02 -2.5231250e-01 0.0000000e+00 
-2.7760493e-02 -2.5305861e-01 0.0000000e+00 
-2.2299878e-02 -2.5381852e-01 0.0000000e+00 
-1.6842484e-02 -2.5459260e-01 0.0000000e+00 
-3.4328957e-02 -2.5960819e-01 0.0000000e+00 
-2.8810957e-02 -2.6036965e-01 0.0000000e+00 
-2.3297636e-02 -2.6114459e-01 0.0000000e+00 
-1.7787491e-02 -2.6193341e-01 0.0000000e+00 
-3.5450254e-02 -2.6697365e-01 0.0000000e+00 
-2.9880767e-02 -2.6775027e-01 0.0000000e+00 
-2.4315906e-02 -2.6854006e-01 0.0000000e+00 
-1.8754176e-02 -2.6934343e-01 0.0000000e+00 
-3.6589488e-02 -2.7440733e-01 0.0000000e+00 
-3.0969677e-02 -2.7519891e-01 0.0000000e+00 
-2.5354438e-02 -2.7600337e-01 0.0000000e+00 
-1.9742283e-02 -2.7682110e-01 0.0000000e+00 
-3.7746411e-02 -2.8190769e-01 0.0000000e+00 
-3.2077433e-02 -2.8271405e-01 0.0000000e+00 
-2.6412970e-02 -2.8353298e-01 0.0000000e+00 
-2.0751541e-02 -2.8436487e-01 0.0000000e+00 
-3.8920765e-02 -2.8947322e-01 0.0000000e+00 
-3.3203769e-02 -2.9029414e-01 0.0000000e+00 
-2.7491229e-02 -2.9112733e-01 0.0000000e+00 
-2.1781673e-02 -2.9197319e-01 0.0000000e+00 
-4.0112281e-02 -2.9710240e-01 0.0000000e+00 
-3.4348410e-02 -2.9793767e-01 0.0000000e+00 
-2.8588936e-02 -2.9878491e-01 0.0000000e+00 
-2.2832392e-02 -2.9964452e-01 0.0000000e+00 
-4.1320682e-02 -3.0479372e-01 0.0000000e+00 
-3.5511073e-02 -3.0564312e-01 0.0000000e+00 
-2.9705798e-02 -3.0650419e-01 0.0000000e+00 
-2.3903399e-02 -3.0737734e-01 0.0000000e+00 
-4.2545680e-02 -3.1254568e-01 0.0000000e+00 
-3.6691464e-02 -3.1340898e-01 0.0000000e+00 
-3.0841518e-02 -3.1428366e-01 0.0000000e+00 
-2.4994390e-02 -3.1517012e-01 0.0000000e+00 
-4.3786982e-02 -3.2035679e-01 0.0000000e+00 
-3.7889281e-02 -3.2123376e-01 0.0000000e+00 
-3.1995785e-02 -3.2212181e-01 0.0000000e+00 
-2.6105050e-02 -3.2302135e-01 0.0000000e+00 
-4.5044284e-02 -3.2822557e-01 0.0000000e+00 
-3.9104216e-02 -3.2911597e-01 0.0000000e+00 
-3.3168283e-02 -3.3001715e-01 0.0000000e+00 
-2.7235053e-02 -3.3092954e-01 0.0000000e+00 
-4.6317280e-02 -3.3615055e-01 0.0000000e+00 
-4.0335950e-02 -3.3705413e-01 0.0000000e+00 
-3.4358687e-02 -3.3796820e-01 0.0000000e+00 
-2.8384067e-02 -3.3889319e-01 0.0000000e+00 
-4.7605652e-02 -3.4413025e-01 0.0000000e+00 
-4.1584161e-02 -3.4504677e-01 0.0000000e+00 
-3.5566666e-02 -3.4597349e-01 0.0000000e+00 
-2.9551753e-02 -3.4691084e-01 0.0000000e+00 
-4.8909079e-02 -3.5216324e-01 0.0000000e+00 
-4.2848518e-02 -3.5309243e-01 0.0000000e+00 
-3.6791880e-02 -3.5403155e-01 0.0000000e+00 
-3.0737763e-02 -3.5498100e-01 0.0000000e+00 
-5.0227234e-02 -3.6024807e-01 0.0000000e+00 
-4.4128685e-02 -3.6118968e-01 0.0000000e+00 
-3.8033986e-02 -3.6214093e-01 0.0000000e+00 
-3.1941744e-02 -3.6310223e-01 0.0000000e+00 
-5.1559785e-02 -3.6838331e-01 0.0000000e+00 
-4.5424321e-02 -3.6933707e-01 0.0000000e+00 
-3.9292631e-02 -3.7030019e-01 0.0000000e+00 
-3.3163336e-02 -3.7127309e-01 0.0000000e+00 
-5.2906395e-02 -3.7656754e-01 0.0000000e+00 
-4.6735078e-02 -3.7753319e-01 0.0000000e+00 
-4.0567460e-02 -3.7850791e-01 0.0000000e+00 
-3.4402173e-02 -3.7949215e-01 0.0000000e+00 
-5.4266722e-02 -3.8479936e-01 0.0000000e+00 
-4.8060606e-02 -3.8577662e-01 0.0000000e+00 
-4.1858113e-02 -3.8676269e-01 0.0000000e+00 
-3.5657885e-02 -3.8775798e-01 0.0000000e+00 
-5.5640422e-02 -3.9307737e-01 0.0000000e+00 
-4.9400551e-02 -3.9406597e-01 0.0000000e+00 
-4.3164223e-02 -3.9506311e-01 0.0000000e+00 
-3.6930096e-02 -3.9606920e-01 0.0000000e+00 
-5.7027147e-02 -4.0140020e-01 0.0000000e+00 
-5.0754552e-02 -4.0239986e-01 0.0000000e+00 
-4.4485423e-02 -4.0340779e-01 0.0000000e+00 
-3.8218428e-02 -4.0442441e-01 0.0000000e+00 
-5.8426546e-02 -4.0976647e-01 0.0000000e+00 
-5.2122250e-02 -4.1077692e-01 0.0000000e+00 
-4.5821339e-02 -4.1179537e-01 0.0000000e+00 
-3.9522497e-02 -4.1282224e-01 0.0000000e+00 
-5.9838271e-02 -4.1817485e-01 0.0000000e+00 
-5.3503281e-02 -4.1919580e-01 0.0000000e+00 
-4.7171595e-02 -4.2022449e-01 0.0000000e+00 
-4.0841913e-02 -4.2126134e-01 0.0000000e+00 
-6.1261967e-02 -4.2662399e-01 0.0000000e+00 
-5.4897280e-02 -4.2765516e-01 0.0000000e+00 
-4.8535816e-02 -4.2869382e-01 0.0000000e+00 
-4.2176290e-02 -4.2974037e-01 0.0000000e+00 
-6.2697280e-02 -4.3511257e-01 0.0000000e+00 
-5.6303880e-02 -4.3615368e-01 0.0000000e+00 
-4.9913621e-02 -4.3720202e-01 0.0000000e+00 
-4.3525235e-02 -4.3825800e-01 0.0000000e+00 
-6.4143856e-02 -4.4363929e-01 0.0000000e+00 
-5.7722713e-02 -4.4469006e-01 0.0000000e+00 
-5.1304633e-02 -4.4574781e-01 0.0000000e+00 
-4.4888357e-02 -4.4681293e-01 0.0000000e+00 
-6.5601333e-02 -4.5220287e-01 0.0000000e+00 
-5.9153411e-02 -4.5326301e-01 0.0000000e+00 
-5.2708469e-02 -4.5432988e-01 0.0000000e+00 
-4.6265265e-02 -4.5540387e-01 0.0000000e+00 
-6.7069356e-02 -4.6080203e-01 0.0000000e+00 
-6.0595603e-02 -4.6187126e-01 0.0000000e+00 
-5.4124747e-02 -4.6294696e-01 0.0000000e+00 
-4.7655564e-02 -4.6402955e-01 0.0000000e+00 
-6.8547570e-02 -4.6943552e-01 0.0000000e+00 
-6.2048920e-02 -4.7051354e-01 0.0000000e+00 
-5.5553084e-02 -4.7159780e-01 0.0000000e+00 
-4.9058857e-02 -4.7268870e-01 0.0000000e+00 
-7.0035621e-02 -4.7810209e-01 0.0000000e+00 
-6.3512994e-02 -4.7918863e-01 0.0000000e+00 
-5.6993099e-02 -4.8028117e-01 0.0000000e+00 
-5.0474749e-02 -4.8138010e-01 0.0000000e+00 
-7.1533155e-02 -4.8680052e-01 0.0000000e+00 
-6.4987458e-02 -4.8789530e-01 0.0000000e+00 
-5.8444411e-02 -4.8899583e-01 0.0000000e+00 
-5.1902844e-02 -4.9010253e-01 0.0000000e+00 
-7.3039823e-02 -4.9552962e-01 0.0000000e+00 
-6.6471948e-02 -4.9663234e-01 0.0000000e+00 
-5.9906639e-02 -4.9774060e-01 0.0000000e+00 
-5.3342748e-02 -4.9885478e-01 0.0000000e+00 
-7.4555279e-02 -5.0428820e-01 0.0000000e+00 
-6.7966100e-02 -5.0539859e-01 0.0000000e+00 
-6.1379406e-02 -5.0651429e-01 0.0000000e+00 
-5.4794067e-02 -5.0763569e-01 0.0000000e+00 
-7.6079178e-02 -5.1307509e-01 0.0000000e+00 
-6.9469556e-02 -5.1419288e-01 0.0000000e+00 
-6.2862337e-02 -5.1531575e-01 0.0000000e+00 
-5.6256411e-02 -5.1644410e-01 0.0000000e+00 
-7.7611181e-02 -5.2188917e-01 0.0000000e+00 
-7.0981960e-02 -5.2301407e-01 0.0000000e+00 
-6.4355058e-02 -5.2414385e-01 0.0000000e+00 
-5.7729392e-02 -5.2527887e-01 0.0000000e+00 
-7.9150957e-02 -5.3072931e-01 0.0000000e+00 
-7.2502961e-02 -5.3186105e-01 0.0000000e+00 
-6.5857203e-02 -5.3299746e-01 0.0000000e+00 
-5.9212622e-02 -5.3413889e-01 0.0000000e+00 
-8.0698177e-02 -5.3959441e-01 0.0000000e+00 
-7.4032213e-02 -5.4073273e-01 0.0000000e+00 
-6.7368407e-02 -5.4187550e-01 0.0000000e+00 
-6.0705720e-02 -5.4302309e-01 0.0000000e+00 
-8.2252517e-02 -5.4848340e-01 0.0000000e+00 
-7.5569374e-02 -5.4962803e-01 0.0000000e+00 
-6.8888310e-02 -5.5077691e-01 0.0000000e+00 
-6.2208308e-02 -5.5193040e-01 0.0000000e+00 
-8.3813658e-02 -5.5739524e-01 0.0000000e+00 
-7.7114107e-02 -5.5854592e-01 0.0000000e+00 
-7.0416559e-02 -5.5970065e-01 0.0000000e+00 
-6.3720016e-02 -5.6085978e-01 0.0000000e+00 
-8.5381281e-02 -5.6632890e-01 0.0000000e+00 
-7.8666080e-02 -5.6748536e-01 0.0000000e+00 
-7.1952804e-02 -5.6864569e-01 0.0000000e+00 
-6.5240479e-02 -5.6981022e-01 0.0000000e+00 
-8.6955079e-02 -5.7528337e-01 0.0000000e+00 
-8.0224966e-02 -5.7644537e-01 0.0000000e+00 
-7.3496700e-02 -5.7761105e-01 0.0000000e+00 
-6.6769334e-02 -5.7878073e-01 0.0000000e+00 
-8.8534750e-02 -5.8425768e-01 0.0000000e+00 
-8.1790444e-02 -5.8542496e-01 0.0000000e+00 
-7.5047909e-02 -5.8659574e-01 0.0000000e+00 
-6.8306223e-02 -5.8777034e-01 0.0000000e+00 
-9.0120002e-02 -5.9325086e-01 0.0000000e+00 
-8.3362202e-02 -5.9442319e-01 0.0000000e+00 
-7.6606098e-02 -5.9559883e-01 0.0000000e+00 
-6.9850793e-02 -5.9677810e-01 0.0000000e+00 
-9.1710547e-02 -6.0226199e-01 0.0000000e+00 
-8.4939933e-02 -6.0343912e-01 0.0000000e+00 
-7.8170941e-02 -6.0461939e-01 0.0000000e+00 
-7.1402701e-02 -6.0580312e-01 0.0000000e+00 
-9.3306107e-02 -6.1129017e-01 0.0000000e+00 
-8.6523338e-02 -6.1247187e-01 0.0000000e+00 
-7.9742120e-02 -6.1365654e-01 0.0000000e+00 
-7.2961607e-02 -6.1484449e-01 0.0000000e+00 
-9.4906412e-02 -6.2033451e-01 0.0000000e+00 
-8.8112127e-02 -6.2152055e-01 0.0000000e+00 
-8.1319323e-02 -6.2270941e-01 0.0000000e+00 
-7.4527181e-02 -6.2390137e-01 0.0000000e+00 
-9.6511198e-02 -6.2939417e-01 0.0000000e+00 
-8.9706018e-02 -6.3058433e-01 0.0000000e+00 
-8.2902248e-02 -6.3177715e-01 0.0000000e+00 
-7.6099098e-02 -6.3297291e-01 0.0000000e+00 
-9.8120211e-02 -6.3846833e-01 0.0000000e+00 
-9.1304734e-02 -6.3966239e-01 0.0000000e+00 
-8.4490599e-02 -6.4085896e-01 0.0000000e+00 
-7.7677043e-02 -6.4205831e-01 0.0000000e+00 
-9.9733206e-02 -6.4755618e-01 0.0000000e+00 
-9.2908010e-02 -6.4875394e-01 0.0000000e+00 
-8.6084090e-02 -6.4995406e-01 0.0000000e+00 
-7.9260710e-02 -6.5115681e-01 0.0000000e+00 
-1.0134995e-01 -6.5665696e-01 0.0000000e+00 
-9.4515589e-02 -6.5785821e-01 0.0000000e+00 
-8.7682443e-02 -6.5906168e-01 0.0000000e+00 
-8.0849799e-02 -6.6026763e-01 0.0000000e+00 