# vtk DataFile Version 4.0
vtk output
ASCII
DATASET UNSTRUCTURED_GRID
POINTS 604 float
5.5000000e+00 5.9700000e+00 0.0000000e+00 
5.5000000e+00 5.9900000e+00 0.0000000e+00 
5.5266667e+00 5.9700000e+00 0.0000000e+00 
5.5266667e+00 5.9900000e+00 0.0000000e+00 
5.5000000e+00 6.0100000e+00 0.0000000e+00 
5.5266667e+00 6.0100000e+00 0.0000000e+00 
5.5533333e+00 5.9700000e+00 0.0000000e+00 
5.5533333e+00 5.9900000e+00 0.0000000e+00 
5.5000000e+00 6.0300000e+00 0.0000000e+00 
5.5266667e+00 6.0300000e+00 0.0000000e+00 
5.5533333e+00 6.0100000e+00 0.0000000e+00 
5.5800000e+00 5.9700000e+00 0.0000000e+00 
5.5533333e+00 6.0300000e+00 0.0000000e+00 
5.5800000e+00 5.9900000e+00 0.0000000e+00 
5.5800000e+00 6.0100000e+00 0.0000000e+00 
5.5800000e+00 6.0300000e+00 0.0000000e+00 
5.6066667e+00 5.9700000e+00 0.0000000e+00 
5.6066667e+00 5.9900000e+00 0.0000000e+00 
5.6066667e+00 6.0100000e+00 0.0000000e+00 
5.6066667e+00 6.0300000e+00 0.0000000e+00 
5.6333333e+00 5.9700000e+00 0.0000000e+00 
5.6333333e+00 5.9900000e+00 0.0000000e+00 
5.6333333e+00 6.0100000e+00 0.0000000e+00 
5.6333333e+00 6.0300000e+00 0.0000000e+00 
5.6600000e+00 5.9700000e+00 0.0000000e+00 
5.6600000e+00 5.9900000e+00 0.0000000e+00 
5.6600000e+00 6.0100000e+00 0.0000000e+00 
5.6600000e+00 6.0300000e+00 0.0000000e+00 
5.6866667e+00 5.9700000e+00 0.0000000e+00 
5.6866667e+00 5.9900000e+00 0.0000000e+00 
5.6866667e+00 6.0100000e+00 0.0000000e+00 
5.6866667e+00 6.0300000e+00 0.0000000e+00 
5.7133333e+00 5.9700000e+00 0.0000000e+00 
5.7133333e+00 5.9900000e+00 0.0000000e+00 
5.7133333e+00 6.0100000e+00 0.0000000e+00 
5.7133333e+00 6.0300000e+00 0.0000000e+00 
5.7400000e+00 5.9700000e+00 0.0000000e+00 
5.7400000e+00 5.9900000e+00 0.0000000e+00 
5.7400000e+00 6.0100000e+00 0.0000000e+00 
5.7400000e+00 6.0300000e+00 0.0000000e+00 
5.7666667e+00 5.9700000e+00 0.0000000e+00 
5.7666667e+00 5.9900000e+00 0.0000000e+00 
5.7666667e+00 6.0100000e+00 0.0000000e+00 
5.7666667e+00 6.0300000e+00 0.0000000e+00 
5.7933333e+00 5.9700000e+00 0.0000000e+00 
5.7933333e+00 5.9900000e+00 0.0000000e+00 
5.7933333e+00 6.0100000e+00 0.0000000e+00 
5.7933333e+00 6.0300000e+00 0.0000000e+00 
5.8200000e+00 5.9700000e+00 0.0000000e+00 
5.8200000e+00 5.9900000e+00 0.0000000e+00 
5.8200000e+00 6.0100000e+00 0.0000000e+00 
5.8200000e+00 6.0300000e+00 0.0000000e+00 
5.8466667e+00 5.9700000e+00 0.0000000e+00 
5.8466667e+00 5.9900000e+00 0.0000000e+00 
5.8466667e+00 6.0100000e+00 0.0000000e+00 
5.8466667e+00 6.0300000e+00 0.0000000e+00 
5.8733333e+00 5.9700000e+00 0.0000000e+00 
5.8733333e+00 5.9900000e+00 0.0000000e+00 
5.8733333e+00 6.0100000e+00 0.0000000e+00 
5.8733333e+00 6.0300000e+00 0.0000000e+00 
5.9000000e+00 5.9700000e+00 0.0000000e+00 
5.9000000e+00 5.9900000e+00 0.0000000e+00 
5.9000000e+00 6.0100000e+00 0.0000000e+00 
5.9000000e+00 6.0300000e+00 0.0000000e+00 
5.9266667e+00 5.9700000e+00 0.0000000e+00 
5.9266667e+00 5.9900000e+00 0.0000000e+00 
5.9266667e+00 6.0100000e+00 0.0000000e+00 
5.9266667e+00 6.0300000e+00 0.0000000e+00 
5.9533333e+00 5.9700000e+00 0.0000000e+00 
5.9533333e+00 5.9900000e+00 0.0000000e+00 
5.9533333e+00 6.0100000e+00 0.0000000e+00 
5.9533333e+00 6.0300000e+00 0.0000000e+00 
5.9800000e+00 5.9700000e+00 0.0000000e+00 
5.9800000e+00 5.9900000e+00 0.0000000e+00 
5.9800000e+00 6.0100000e+00 0.0000000e+00 
5.9800000e+00 6.0300000e+00 0.0000000e+00 
6.0066667e+00 5.9700000e+00 0.0000000e+00 
6.0066667e+00 5.9900000e+00 0.0000000e+00 
6.0066667e+00 6.0100000e+00 0.0000000e+00 
6.0066667e+00 6.0300000e+00 0.0000000e+00 
6.0333333e+00 5.9700000e+00 0.0000000e+00 
6.0333333e+00 5.9900000e+00 0.0000000e+00 
6.0333333e+00 6.0100000e+00 0.0000000e+00 
6.0333333e+00 6.0300000e+00 0.0000000e+00 
6.0600000e+00 5.9700000e+00 0.0000000e+00 
6.0600000e+00 5.9900000e+00 0.0000000e+00 
6.0600000e+00 6.0100000e+00 0.0000000e+00 
6.0600000e+00 6.0300000e+00 0.0000000e+00 
6.0866667e+00 5.9700000e+00 0.0000000e+00 
6.0866667e+00 5.9900000e+00 0.0000000e+00 
6.0866667e+00 6.0100000e+00 0.0000000e+00 
6.0866667e+00 6.0300000e+00 0.0000000e+00 
6.1133333e+00 5.9700000e+00 0.0000000e+00 
6.1133333e+00 5.9900000e+00 0.0000000e+00 
6.1133333e+00 6.0100000e+00 0.0000000e+00 
6.1133333e+00 6.0300000e+00 0.0000000e+00 
6.1400000e+00 5.9700000e+00 0.0000000e+00 
6.1400000e+00 5.9900000e+00 0.0000000e+00 
6.1400000e+00 6.0100000e+00 0.0000000e+00 
6.1400000e+00 6.0300000e+00 0.0000000e+00 
6.1666667e+00 5.9700000e+00 0.0000000e+00 
6.1666667e+00 5.9900000e+00 0.0000000e+00 
6.1666667e+00 6.0100000e+00 0.0000000e+00 
6.1666667e+00 6.0300000e+00 0.0000000e+00 
6.1933333e+00 5.9700000e+00 0.0000000e+00 
6.1933333e+00 5.9900000e+00 0.0000000e+00 
6.1933333e+00 6.0100000e+00 0.0000000e+00 
6.1933333e+00 6.0300000e+00 0.0000000e+00 
6.2200000e+00 5.9700000e+00 0.0000000e+00 
6.2200000e+00 5.9900000e+00 0.0000000e+00 
6.2200000e+00 6.0100000e+00 0.0000000e+00 
6.2200000e+00 6.0300000e+00 0.0000000e+00 
6.2466667e+00 5.9700000e+00 0.0000000e+00 
6.2466667e+00 5.9900000e+00 0.0000000e+00 
6.2466667e+00 6.0100000e+00 0.0000000e+00 
6.2466667e+00 6.0300000e+00 0.0000000e+00 
6.2733333e+00 5.9700000e+00 0.0000000e+00 
6.2733333e+00 5.9900000e+00 0.0000000e+00 
6.2733333e+00 6.0100000e+00 0.0000000e+00 
6.2733333e+00 6.0300000e+00 0.0000000e+00 
6.3000000e+00 5.9700000e+00 0.0000000e+00 
6.3000000e+00 5.9900000e+00 0.0000000e+00 
6.3000000e+00 6.0100000e+00 0.0000000e+00 
6.3000000e+00 6.0300000e+00 0.0000000e+00 
6.3266667e+00 5.9700000e+00 0.0000000e+00 
6.3266667e+00 5.9900000e+00 0.0000000e+00 
6.3266667e+00 6.0100000e+00 0.0000000e+00 
6.3266667e+00 6.0300000e+00 0.0000000e+00 
6.3533333e+00 5.9700000e+00 0.0000000e+00 
6.3533333e+00 5.9900000e+00 0.0000000e+00 
6.3533333e+00 6.0100000e+00 0.0000000e+00 
6.3533333e+00 6.0300000e+00 0.0000000e+00 
6.3800000e+00 5.9700000e+00 0.0000000e+00 
6.3800000e+00 5.9900000e+00 0.0000000e+00 
6.3800000e+00 6.0100000e+00 0.0000000e+00 
6.3800000e+00 6.0300000e+00 0.0000000e+00 
6.4066667e+00 5.9700000e+00 0.0000000e+00 
6.4066667e+00 5.9900000e+00 0.0000000e+00 
6.4066667e+00 6.0100000e+00 0.0000000e+00 
6.4066667e+00 6.0300000e+00 0.0000000e+00 
6.4333333e+00 5.9700000e+00 0.0000000e+00 
6.4333333e+00 5.9900000e+00 0.0000000e+00 
6.4333333e+00 6.0100000e+00 0.0000000e+00 
6.4333333e+00 6.0300000e+00 0.0000000e+00 
6.4600000e+00 5.9700000e+00 0.0000000e+00 
6.4600000e+00 5.9900000e+00 0.0000000e+00 
6.4600000e+00 6.0100000e+00 0.0000000e+00 
6.4600000e+00 6.0300000e+00 0.0000000e+00 
6.4866667e+00 5.9700000e+00 0.0000000e+00 
6.4866667e+00 5.9900000e+00 0.0000000e+00 
6.4866667e+00 6.0100000e+00 0.0000000e+00 
6.4866667e+00 6.0300000e+00 0.0000000e+00 
6.5133333e+00 5.9700000e+00 0.0000000e+00 
6.5133333e+00 5.9900000e+00 0.0000000e+00 
6.5133333e+00 6.0100000e+00 0.0000000e+00 
6.5133333e+00 6.0300000e+00 0.0000000e+00 
6.5400000e+00 5.9700000e+00 0.0000000e+00 
6.5400000e+00 5.9900000e+00 0.0000000e+00 
6.5400000e+00 6.0100000e+00 0.0000000e+00 
6.5400000e+00 6.0300000e+00 0.0000000e+00 
6.5666667e+00 5.9700000e+00 0.0000000e+00 
6.5666667e+00 5.9900000e+00 0.0000000e+00 
6.5666667e+00 6.0100000e+00 0.0000000e+00 
6.5666667e+00 6.0300000e+00 0.0000000e+00 
6.5933333e+00 5.9700000e+00 0.0000000e+00 
6.5933333e+00 5.9900000e+00 0.0000000e+00 
6.5933333e+00 6.0100000e+00 0.0000000e+00 
6.5933333e+00 6.0300000e+00 0.0000000e+00 
6.6200000e+00 5.9700000e+00 0.0000000e+00 
6.6200000e+00 5.9900000e+00 0.0000000e+00 
6.6200000e+00 6.0100000e+00 0.0000000e+00 
6.6200000e+00 6.0300000e+00 0.0000000e+00 
6.6466667e+00 5.9700000e+00 0.0000000e+00 
6.6466667e+00 5.9900000e+00 0.0000000e+00 
6.6466667e+00 6.0100000e+00 0.0000000e+00 
6.6466667e+00 6.0300000e+00 0.0000000e+00 
6.6733333e+00 5.9700000e+00 0.0000000e+00 
6.6733333e+00 5.9900000e+00 0.0000000e+00 
6.6733333e+00 6.0100000e+00 0.0000000e+00 
6.6733333e+00 6.0300000e+00 0.0000000e+00 
6.7000000e+00 5.9700000e+00 0.0000000e+00 
6.7000000e+00 5.9900000e+00 0.0000000e+00 
6.7000000e+00 6.0100000e+00 0.0000000e+00 
6.7000000e+00 6.0300000e+00 0.0000000e+00 
6.7266667e+00 5.9700000e+00 0.0000000e+00 
6.7266667e+00 5.9900000e+00 0.0000000e+00 
6.7266667e+00 6.0100000e+00 0.0000000e+00 
6.7266667e+00 6.0300000e+00 0.0000000e+00 
6.7533333e+00 5.9700000e+00 0.0000000e+00 
6.7533333e+00 5.9900000e+00 0.0000000e+00 
6.7533333e+00 6.0100000e+00 0.0000000e+00 
6.7533333e+00 6.0300000e+00 0.0000000e+00 
6.7800000e+00 5.9700000e+00 0.0000000e+00 
6.7800000e+00 5.9900000e+00 0.0000000e+00 
6.7800000e+00 6.0100000e+00 0.0000000e+00 
6.7800000e+00 6.0300000e+00 0.0000000e+00 
6.8066667e+00 5.9700000e+00 0.0000000e+00 
6.8066667e+00 5.9900000e+00 0.0000000e+00 
6.8066667e+00 6.0100000e+00 0.0000000e+00 
6.8066667e+00 6.0300000e+00 0.0000000e+00 
6.8333333e+00 5.9700000e+00 0.0000000e+00 
6.8333333e+00 5.9900000e+00 0.0000000e+00 
6.8333333e+00 6.0100000e+00 0.0000000e+00 
6.8333333e+00 6.0300000e+00 0.0000000e+00 
6.8600000e+00 5.9700000e+00 0.0000000e+00 
6.8600000e+00 5.9900000e+00 0.0000000e+00 
6.8600000e+00 6.0100000e+00 0.0000000e+00 
6.8600000e+00 6.0300000e+00 0.0000000e+00 
6.8866667e+00 5.9700000e+00 0.0000000e+00 
6.8866667e+00 5.9900000e+00 0.0000000e+00 
6.8866667e+00 6.0100000e+00 0.0000000e+00 
6.8866667e+00 6.0300000e+00 0.0000000e+00 
6.9133333e+00 5.9700000e+00 0.0000000e+00 
6.9133333e+00 5.9900000e+00 0.0000000e+00 
6.9133333e+00 6.0100000e+00 0.0000000e+00 
6.9133333e+00 6.0300000e+00 0.0000000e+00 
6.9400000e+00 5.9700000e+00 0.0000000e+00 
6.9400000e+00 5.9900000e+00 0.0000000e+00 
6.9400000e+00 6.0100000e+00 0.0000000e+00 
6.9400000e+00 6.0300000e+00 0.0000000e+00 
6.9666667e+00 5.9700000e+00 0.0000000e+00 
6.9666667e+00 5.9900000e+00 0.0000000e+00 
6.9666667e+00 6.0100000e+00 0.0000000e+00 
6.9666667e+00 6.0300000e+00 0.0000000e+00 
6.9933333e+00 5.9700000e+00 0.0000000e+00 
6.9933333e+00 5.9900000e+00 0.0000000e+00 
6.9933333e+00 6.0100000e+00 0.0000000e+00 
6.9933333e+00 6.0300000e+00 0.0000000e+00 
7.0200000e+00 5.9700000e+00 0.0000000e+00 
7.0200000e+00 5.9900000e+00 0.0000000e+00 
[...]
POINT_DATA 604
FIELD FieldData 2
DISPLACEMENT 3 604  float
0.0000000e+00 0.0000000e+00 0.0000000e+00 
0.0000000e+00 0.0000000e+00 0.0000000e+00 
-1.3816624e-04 -8.1447474e-05 0.0000000e+00 
-4.4358855e-05 -5.2660548e-05 0.0000000e+00 
0.0000000e+00 0.0000000e+00 0.0000000e+00 
4.3438028e-05 -5.2939721e-05 0.0000000e+00 
-2.8036671e-04 -2.6347226e-04 0.0000000e+00 
-9.4498256e-05 -2.4027232e-04 0.0000000e+00 
0.0000000e+00 0.0000000e+00 0.0000000e+00 
1.3707197e-04 -8.2192387e-05 0.0000000e+00 
9.1529211e-05 -2.4125249e-04 0.0000000e+00 
-4.2283172e-04 -5.7340114e-04 0.0000000e+00 
2.7696113e-04 -2.6627851e-04 0.0000000e+00 
-1.4305280e-04 -5.5093145e-04 0.0000000e+00 
1.3574001e-04 -5.5298235e-04 0.0000000e+00 
4.1482215e-04 -5.7943496e-04 0.0000000e+00 
-5.6571708e-04 -1.0062897e-03 0.0000000e+00 
-1.9329283e-04 -9.8559632e-04 0.0000000e+00 
1.7815725e-04 -9.8914796e-04 0.0000000e+00 
5.4967019e-04 -1.0168400e-03 0.0000000e+00 
-7.0968521e-04 -1.5615098e-03 0.0000000e+00 
-2.4537228e-04 -1.5429405e-03 0.0000000e+00 
2.1784704e-04 -1.5484063e-03 0.0000000e+00 
6.8103767e-04 -1.5778076e-03 0.0000000e+00 
-8.5525537e-04 -2.2379584e-03 0.0000000e+00 
-2.9987310e-04 -2.2219194e-03 0.0000000e+00 
2.5431208e-04 -2.2296978e-03 0.0000000e+00 
8.0836555e-04 -2.2612015e-03 0.0000000e+00 
-1.0029482e-03 -3.0345720e-03 0.0000000e+00 
-3.5731397e-04 -3.0214513e-03 0.0000000e+00 
2.8702154e-04 -3.0319303e-03 0.0000000e+00 
9.3112625e-04 -3.0659237e-03 0.0000000e+00 
-1.1532690e-03 -3.9502777e-03 0.0000000e+00 
-4.1820364e-04 -3.9404531e-03 0.0000000e+00 
3.1546427e-04 -3.9540096e-03 0.0000000e+00 
1.0488051e-03 -3.9908689e-03 0.0000000e+00 
-1.3067084e-03 -4.9839993e-03 0.0000000e+00 
-4.8303582e-04 -4.9778376e-03 0.0000000e+00 
3.3914340e-04 -4.9948377e-03 0.0000000e+00 
1.1609022e-03 -5.0349281e-03 0.0000000e+00 
-1.4637426e-03 -6.1346561e-03 0.0000000e+00 
-5.5228986e-04 -6.1325134e-03 0.0000000e+00 
3.5757670e-04 -6.1533122e-03 0.0000000e+00 
1.2669322e-03 -6.1969880e-03 0.0000000e+00 
-1.6248340e-03 -7.4011637e-03 0.0000000e+00 
-6.2643054e-04 -7.4033851e-03 0.0000000e+00 
3.7029624e-04 -7.4283269e-03 0.0000000e+00 
1.3664245e-03 -7.4759319e-03 0.0000000e+00 
-1.7904295e-03 -8.7824336e-03 0.0000000e+00 
-7.0590851e-04 -8.7893533e-03 0.0000000e+00 
3.7684870e-04 -8.8187720e-03 0.0000000e+00 
1.4589222e-03 -8.8706388e-03 0.0000000e+00 
-1.9609633e-03 -1.0277373e-02 0.0000000e+00 
-7.9116006e-04 -1.0289315e-02 0.0000000e+00 
3.7679491e-04 -1.0323533e-02 0.0000000e+00 
1.5439840e-03 -1.0379984e-02 0.0000000e+00 
-2.1368550e-03 -1.1884886e-02 0.0000000e+00 
-8.8260759e-04 -1.1902163e-02 0.0000000e+00 
3.6971016e-04 -1.1941494e-02 0.0000000e+00 
1.6211823e-03 -1.2002841e-02 0.0000000e+00 
-2.3185110e-03 -1.3603874e-02 0.0000000e+00 
-9.8065938e-04 -1.3626788e-02 0.0000000e+00 
3.5518374e-04 -1.3671533e-02 0.0000000e+00 
1.6901044e-03 -1.3738077e-02 0.0000000e+00 
-2.5063234e-03 -1.5433233e-02 0.0000000e+00 
-1.0857100e-03 -1.5462077e-02 0.0000000e+00 
3.3281906e-04 -1.5512527e-02 0.0000000e+00 
1.7503514e-03 -1.5584560e-02 0.0000000e+00 
-2.7006709e-03 -1.7371859e-02 0.0000000e+00 
-1.1981400e-03 -1.7406914e-02 0.0000000e+00 
3.0223346e-04 -1.7463351e-02 0.0000000e+00 
1.8015384e-03 -1.7541152e-02 0.0000000e+00 
-2.9019190e-03 -1.9418644e-02 0.0000000e+00 
-1.3183165e-03 -1.9460181e-02 0.0000000e+00 
2.6305803e-04 -1.9522875e-02 0.0000000e+00 
1.8432951e-03 -1.9606716e-02 0.0000000e+00 
-3.1104195e-03 -2.1572477e-02 0.0000000e+00 
-1.4465932e-03 -2.1620757e-02 0.0000000e+00 
2.1493770e-04 -2.1689970e-02 0.0000000e+00 
1.8752645e-03 -2.1780110e-02 0.0000000e+00 
-3.3265115e-03 -2.3832245e-02 0.0000000e+00 
-1.5833104e-03 -2.3887520e-02 0.0000000e+00 
1.5753106e-04 -2.3963502e-02 0.0000000e+00 
1.8971038e-03 -2.4060192e-02 0.0000000e+00 
-3.5505221e-03 -2.6196836e-02 0.0000000e+00 
-1.7287951e-03 -2.6259346e-02 0.0000000e+00 
9.0510097e-05 -2.6342337e-02 0.0000000e+00 
1.9084850e-03 -2.6445818e-02 0.0000000e+00 
-3.7827645e-03 -2.8665133e-02 0.0000000e+00 
-1.8833615e-03 -2.8735110e-02 0.0000000e+00 
1.3560008e-05 -2.8825342e-02 0.0000000e+00 
1.9090922e-03 -2.8935844e-02 0.0000000e+00 
-4.0235386e-03 -3.1236022e-02 0.0000000e+00 
-2.0473107e-03 -3.1313687e-02 0.0000000e+00 
-7.3620919e-05 -3.1411381e-02 0.0000000e+00 
1.8986228e-03 -3.1529125e-02 0.0000000e+00 
-4.2731323e-03 -3.3908386e-02 0.0000000e+00 
-2.2209304e-03 -3.3993950e-02 0.0000000e+00 
-1.7132175e-04 -3.4099317e-02 0.0000000e+00 
1.8767876e-03 -3.4224515e-02 0.0000000e+00 
-4.5318187e-03 -3.6681105e-02 0.0000000e+00 
-2.4044961e-03 -3.6774770e-02 0.0000000e+00 
-2.7981836e-04 -3.6888013e-02 0.0000000e+00 
1.8433082e-03 -3.7020866e-02 0.0000000e+00 
-4.7998604e-03 -3.9553060e-02 0.0000000e+00 
-2.5982702e-03 -3.9655019e-02 0.0000000e+00 
-3.9937408e-04 -3.9776330e-02 0.0000000e+00 
1.7979216e-03 -3.9917030e-02 0.0000000e+00 
-5.0775074e-03 -4.2523129e-02 0.0000000e+00 
-2.8025030e-03 -4.2633567e-02 0.0000000e+00 
-5.3023932e-04 -4.2763128e-02 0.0000000e+00 
1.7403769e-03 -4.2911859e-02 0.0000000e+00 
-5.3649979e-03 -4.5590194e-02 0.0000000e+00 
-3.0174325e-03 -4.5709282e-02 0.0000000e+00 
-6.7265221e-04 -4.5847269e-02 0.0000000e+00 
1.6704361e-03 -4.6004205e-02 0.0000000e+00 
-5.6625577e-03 -4.8753131e-02 0.0000000e+00 
-3.2432847e-03 -4.8881036e-02 0.0000000e+00 
-8.2683846e-04 -4.9027613e-02 0.0000000e+00 
1.5878734e-03 -4.9192918e-02 0.0000000e+00 
-5.9704014e-03 -5.2010821e-02 0.0000000e+00 
-3.4802736e-03 -5.2147698e-02 0.0000000e+00 
-9.9301178e-04 -5.2303021e-02 0.0000000e+00 
1.4924755e-03 -5.2476851e-02 0.0000000e+00 
-6.2887315e-03 -5.5362143e-02 0.0000000e+00 
-3.7286011e-03 -5.5508139e-02 0.0000000e+00 
-1.1713739e-03 -5.5672355e-02 0.0000000e+00 
1.3840411e-03 -5.5854858e-02 0.0000000e+00 
-6.6177389e-03 -5.8805977e-02 0.0000000e+00 
-3.9884580e-03 -5.8961229e-02 0.0000000e+00 
-1.3621146e-03 -5.9134477e-02 0.0000000e+00 
1.2623807e-03 -5.9325791e-02 0.0000000e+00 
-6.9576039e-03 -6.2341203e-02 0.0000000e+00 
-4.2600232e-03 -6.2505842e-02 0.0000000e+00 
-1.5654123e-03 -6.2688250e-02 0.0000000e+00 
1.1273170e-03 -6.2888506e-02 0.0000000e+00 
-7.3084950e-03 -6.5966703e-02 0.0000000e+00 
-4.5434646e-03 -6.6140849e-02 0.0000000e+00 
-1.7814337e-03 -6.6332540e-02 0.0000000e+00 
9.7868400e-04 -6.6541859e-02 0.0000000e+00 
-7.6705703e-03 -6.9681360e-02 0.0000000e+00 
-4.8389391e-03 -6.9865126e-02 0.0000000e+00 
-2.0103341e-03 -7.0066213e-02 0.0000000e+00 
8.1632734e-04 -7.0284708e-02 0.0000000e+00 
-8.0439795e-03 -7.3484059e-02 0.0000000e+00 
-5.1465928e-03 -7.3677550e-02 0.0000000e+00 
-2.2522579e-03 -7.3888137e-02 0.0000000e+00 
6.4010607e-04 -7.4115914e-02 0.0000000e+00 
-8.4288594e-03 -7.7373689e-02 0.0000000e+00 
-5.4665615e-03 -7.7577000e-02 0.0000000e+00 
-2.5073386e-03 -7.7797185e-02 0.0000000e+00 
4.4988785e-04 -7.8034340e-02 0.0000000e+00 
-8.8253364e-03 -8.1349138e-02 0.0000000e+00 
-5.7989699e-03 -8.1562359e-02 0.0000000e+00 
-2.7756995e-03 -8.1792230e-02 0.0000000e+00 
2.4555098e-04 -8.2038855e-02 0.0000000e+00 
-9.2335272e-03 -8.5409299e-02 0.0000000e+00 
-6.1439321e-03 -8.5632511e-02 0.0000000e+00 
-3.0574534e-03 -8.5872150e-02 0.0000000e+00 
2.6984980e-05 -8.6128325e-02 0.0000000e+00 
-9.6535350e-03 -8.9553067e-02 0.0000000e+00 
-6.5015523e-03 -8.9786342e-02 0.0000000e+00 
-3.3527028e-03 -9.0035822e-02 0.0000000e+00 
-2.0591323e-04 -9.0301621e-02 0.0000000e+00 
-1.0085456e-02 -9.3779335e-02 0.0000000e+00 
-6.8719238e-03 -9.4022739e-02 0.0000000e+00 
-3.6615398e-03 -9.4282127e-02 0.0000000e+00 
-4.5323310e-04 -9.4557617e-02 0.0000000e+00 
-1.0529377e-02 -9.8087001e-02 0.0000000e+00 
-7.2551308e-03 -9.8340592e-02 0.0000000e+00 
-3.9840461e-03 -9.8609947e-02 0.0000000e+00 
-7.1505465e-04 -9.8895186e-02 0.0000000e+00 
-1.0985374e-02 -1.0247497e-01 0.0000000e+00 
-7.6512477e-03 -1.0273879e-01 0.0000000e+00 
-4.3202940e-03 -1.0301817e-01 0.0000000e+00 
-9.9144749e-04 -1.0331321e-01 0.0000000e+00 
-1.1453514e-02 -1.0694213e-01 0.0000000e+00 
-8.0603394e-03 -1.0721624e-01 0.0000000e+00 
-4.6703460e-03 -1.0750568e-01 0.0000000e+00 
-1.2824720e-03 -1.0781056e-01 0.0000000e+00 
-1.1933857e-02 -1.1148741e-01 0.0000000e+00 
-8.4824614e-03 -1.1177184e-01 0.0000000e+00 
-5.0342550e-03 -1.1207137e-01 0.0000000e+00 
-1.5881784e-03 -1.1238614e-01 0.0000000e+00 
-1.2426450e-02 -1.1610970e-01 0.0000000e+00 
-8.9176603e-03 -1.1640447e-01 0.0000000e+00 
-5.4120650e-03 -1.1671414e-01 0.0000000e+00 
-1.9086082e-03 -1.1703883e-01 0.0000000e+00 
-1.2931334e-02 -1.2080792e-01 0.0000000e+00 
-9.3659737e-03 -1.2111307e-01 0.0000000e+00 
-5.8038108e-03 -1.2143288e-01 0.0000000e+00 
-2.2437936e-03 -1.2176751e-01 0.0000000e+00 
-1.3448542e-02 -1.2558099e-01 0.0000000e+00 
-9.8274303e-03 -1.2589652e-01 0.0000000e+00 
-6.2095185e-03 -1.2622651e-01 0.0000000e+00 
-2.5937576e-03 -1.2657110e-01 0.0000000e+00 
-1.3978096e-02 -1.3042783e-01 0.0000000e+00 
-1.0302051e-02 -1.3075376e-01 0.0000000e+00 
-6.6292051e-03 -1.3109393e-01 0.0000000e+00 
-2.9585147e-03 -1.3144848e-01 0.0000000e+00 
-1.4520011e-02 -1.3534735e-01 0.0000000e+00 
-1.0789846e-02 -1.3568368e-01 0.0000000e+00 
-7.0628797e-03 -1.3603404e-01 0.0000000e+00 
-3.3380703e-03 -1.3639857e-01 0.0000000e+00 
-1.5074295e-02 -1.4033850e-01 0.0000000e+00 
-1.1290821e-02 -1.4068523e-01 0.0000000e+00 
-7.5105429e-03 -1.4104577e-01 0.0000000e+00 
-3.7324223e-03 -1.4142028e-01 0.0000000e+00 
-1.5640946e-02 -1.4540019e-01 0.0000000e+00 
-1.1804972e-02 -1.4575731e-01 0.0000000e+00 
-7.9721866e-03 -1.4612803e-01 0.0000000e+00 
-4.1415600e-03 -1.4651251e-01 0.0000000e+00 
-1.6219959e-02 -1.5053137e-01 0.0000000e+00 
-1.2332286e-02 -1.5089887e-01 0.0000000e+00 
-8.4477955e-03 -1.5127976e-01 0.0000000e+00 
-4.5654615e-03 -1.5167419e-01 0.0000000e+00 
-1.6811319e-02 -1.5573099e-01 0.0000000e+00 
-1.2872745e-02 -1.5610884e-01 0.0000000e+00 
-8.9373468e-03 -1.5649988e-01 0.0000000e+00 
-5.0041011e-03 -1.5690425e-01 0.0000000e+00 
-1.7415003e-02 -1.6099798e-01 0.0000000e+00 
-1.3426324e-02 -1.6138617e-01 0.0000000e+00 
-9.4408104e-03 -1.6178732e-01 0.0000000e+00 
-5.4574453e-03 -1.6220162e-01 0.0000000e+00 
-1.8030980e-02 -1.6633130e-01 0.0000000e+00 
-1.3992986e-02 -1.6672979e-01 0.0000000e+00 
-9.9581494e-03 -1.6714104e-01 0.0000000e+00 
-5.9254527e-03 -1.6756522e-01 0.0000000e+00 
-1.8659210e-02 -1.7172991e-01 0.0000000e+00 
-1.4572693e-02 -1.7213867e-01 0.0000000e+00 
-1.0489319e-02 -1.7255998e-01 0.0000000e+00 
-6.4080787e-03 -1.7299401e-01 0.0000000e+00 
-1.9299649e-02 -1.7719276e-01 0.0000000e+00 
-1.5165393e-02 -1.7761175e-01 0.0000000e+00 
-1.1034268e-02 -1.7804308e-01 0.0000000e+00 
-6.9052672e-03 -1.7848692e-01 0.0000000e+00 
-1.9952245e-02 -1.8271883e-01 0.0000000e+00 
-1.5771033e-02 -1.8314799e-01 0.0000000e+00 
-1.1592938e-02 -1.8358929e-01 0.0000000e+00 
-7.4169560e-03 -1.8404291e-01 0.0000000e+00 
-2.0616941e-02 -1.8830707e-01 0.0000000e+00 
-1.6389552e-02 -1.8874636e-01 0.0000000e+00 
-1.2165263e-02 -1.8919759e-01 0.0000000e+00 
-7.9430758e-03 -1.8966093e-01 0.0000000e+00 
-2.1293671e-02 -1.9395646e-01 0.0000000e+00 
-1.7020880e-02 -1.9440583e-01 0.0000000e+00 
-1.2751171e-02 -1.9486692e-01 0.0000000e+00 
-8.4835510e-03 -1.9533993e-01 0.0000000e+00 
-2.1982367e-02 -1.9966598e-01 0.0000000e+00 
-1.7664943e-02 -2.0012536e-01 0.0000000e+00 
-1.3350584e-02 -2.0059627e-01 0.0000000e+00 
-9.0383001e-03 -2.0107888e-01 0.0000000e+00 
-2.2682950e-02 -2.0543462e-01 0.0000000e+00 
-1.8321662e-02 -2.0590394e-01 0.0000000e+00 
-1.3963418e-02 -2.0638459e-01 0.0000000e+00 
-9.6072348e-03 -2.0687676e-01 0.0000000e+00 
-2.3395340e-02 -2.1126135e-01 0.0000000e+00 
-1.8990950e-02 -2.1174056e-01 0.0000000e+00 
-1.4589584e-02 -2.1223089e-01 0.0000000e+00 
-1.0190261e-02 -2.1273253e-01 0.0000000e+00 
-2.4119446e-02 -2.1714518e-01 0.0000000e+00 
-1.9672714e-02 -2.1763419e-01 0.0000000e+00 
-1.5228983e-02 -2.1813412e-01 0.0000000e+00 
-1.0787280e-02 -2.1864518e-01 0.0000000e+00 
-2.4855180e-02 -2.2308510e-01 0.0000000e+00 
-2.0366859e-02 -2.2358384e-01 0.0000000e+00 
-1.5881516e-02 -2.2409330e-01 0.0000000e+00 
-1.1398182e-02 -2.2461368e-01 0.0000000e+00 
-2.5602444e-02 -2.2908012e-01 0.0000000e+00 
-2.1073282e-02 -2.2958850e-01 0.0000000e+00 
-1.6547074e-02 -2.3010741e-01 0.0000000e+00 
-1.2022857e-02 -2.3063705e-01 0.0000000e+00 
-2.6361132e-02 -2.3512925e-01 0.0000000e+00 
-2.1791875e-02 -2.3564719e-01 0.0000000e+00 
-1.7225547e-02 -2.3617547e-01 0.0000000e+00 
-1.2661189e-02 -2.3671427e-01 0.0000000e+00 
-2.7131138e-02 -2.4123151e-01 0.0000000e+00 
-2.2522526e-02 -2.4175892e-01 0.0000000e+00 
-1.7916818e-02 -2.4229647e-01 0.0000000e+00 
-1.3313058e-02 -2.4284436e-01 0.0000000e+00 
-2.7912342e-02 -2.4738591e-01 0.0000000e+00 
-2.3265115e-02 -2.4792270e-01 0.0000000e+00 
-1.8620766e-02 -2.4846943e-01 0.0000000e+00 
-1.3978341e-02 -2.4902632e-01 0.0000000e+00 
-2.8704626e-02 -2.5359148e-01 0.0000000e+00 
-2.4019520e-02 -2.5413755e-01 0.0000000e+00 
-1.9337263e-02 -2.5469337e-01 0.0000000e+00 
-1.4656908e-02 -2.5525915e-01 0.0000000e+00 
-2.9507865e-02 -2.5984725e-01 0.0000000e+00 
-2.4785612e-02 -2.6040250e-01 0.0000000e+00 
-2.0066178e-02 -2.6096731e-01 0.0000000e+00 
-1.5348621e-02 -2.6154189e-01 0.0000000e+00 
-3.0321932e-02 -2.6615225e-01 0.0000000e+00 
-2.5563258e-02 -2.6671658e-01 0.0000000e+00 
-2.0807373e-02 -2.6729028e-01 0.0000000e+00 
-1.6053342e-02 -2.6787355e-01 0.0000000e+00 
-3.1146693e-02 -2.7250552e-01 0.0000000e+00 
-2.6352321e-02 -2.7307882e-01 0.0000000e+00 
-2.1560709e-02 -2.7366130e-01 0.0000000e+00 
-1.6770923e-02 -2.7425317e-01 0.0000000e+00 
-3.1982011e-02 -2.7890610e-01 0.0000000e+00 
-2.7152661e-02 -2.7948827e-01 0.0000000e+00 
-2.2326040e-02 -2.8007942e-01 0.0000000e+00 
-1.7501218e-02 -2.8067977e-01 0.0000000e+00 
-3.2827744e-02 -2.8535305e-01 0.0000000e+00 
-2.7964132e-02 -2.8594396e-01 0.0000000e+00 
-2.3103215e-02 -2.8654368e-01 0.0000000e+00 
-1.8244071e-02 -2.8715240e-01 0.0000000e+00 
-3.3683747e-02 -2.9184542e-01 0.0000000e+00 
-2.8786584e-02 -2.9244497e-01 0.0000000e+00 
-2.3892083e-02 -2.9305312e-01 0.0000000e+00 
-1.8999327e-02 -2.9367011e-01 0.0000000e+00 
-3.4549871e-02 -2.9838227e-01 0.0000000e+00 
-2.9619864e-02 -2.9899032e-01 0.0000000e+00 
-2.4692486e-02 -2.9960681e-01 0.0000000e+00 
-1.9766823e-02 -3.0023194e-01 0.0000000e+00 
-3.5425963e-02 -3.0496266e-01 0.0000000e+00 
-3.0463816e-02 -3.0557910e-01 0.0000000e+00 
-2.5504263e-02 -3.0620379e-01 0.0000000e+00 
-2.0546396e-02 -3.0683695e-01 0.0000000e+00 
-3.6311866e-02 -3.1158566e-01 0.0000000e+00 
-3.1318278e-02 -3.1221037e-01 0.0000000e+00 
-2.6327250e-02 -3.1284315e-01 0.0000000e+00 
-2.1337877e-02 -3.1348420e-01 0.0000000e+00 
-3.7207421e-02 -3.1825034e-01 0.0000000e+00 
-3.2183088e-02 -3.1888320e-01 0.0000000e+00 
-2.7161279e-02 -3.1952393e-01 0.0000000e+00 
-2.2141093e-02 -3.2017276e-01 0.0000000e+00 
-3.8112463e-02 -3.2495579e-01 0.0000000e+00 
-3.3058077e-02 -3.2559666e-01 0.0000000e+00 
-2.8006177e-02 -3.2624522e-01 0.0000000e+00 
-2.2955871e-02 -3.2690170e-01 0.0000000e+00 
-3.9026831e-02 -3.3170110e-01 0.0000000e+00 
-3.3943076e-02 -3.3234984e-01 0.0000000e+00 
-2.8861770e-02 -3.3300611e-01 0.0000000e+00 
-2.3782027e-02 -3.3367011e-01 0.0000000e+00 
-3.9950355e-02 -3.3848535e-01 0.0000000e+00 
-3.4837912e-02 -3.3914184e-01 0.0000000e+00 
-2.9727882e-02 -3.3980567e-01 0.0000000e+00 
-2.4619381e-02 -3.4047706e-01 0.0000000e+00 
-4.0882865e-02 -3.4530764e-01 0.0000000e+00 
-3.5742412e-02 -3.4597174e-01 0.0000000e+00 
-3.0604333e-02 -3.4664300e-01 0.0000000e+00 
-2.5467750e-02 -3.4732165e-01 0.0000000e+00 
-4.1824186e-02 -3.5216708e-01 0.0000000e+00 
-3.6656395e-02 -3.5283865e-01 0.0000000e+00 
-3.1490940e-02 -3.5351721e-01 0.0000000e+00 
-2.6326947e-02 -3.5420298e-01 0.0000000e+00 
-4.2774138e-02 -3.5906277e-01 0.0000000e+00 
-3.7579680e-02 -3.5974168e-01 0.0000000e+00 
-3.2387520e-02 -3.6042740e-01 0.0000000e+00 
-2.7196787e-02 -3.6112016e-01 0.0000000e+00 
-4.3732540e-02 -3.6599383e-01 0.0000000e+00 
-3.8512083e-02 -3.6667994e-01 0.0000000e+00 
-3.3293884e-02 -3.6737267e-01 0.0000000e+00 
-2.8077077e-02 -3.6807227e-01 0.0000000e+00 
-4.4699210e-02 -3.7295938e-01 0.0000000e+00 
-3.9453416e-02 -3.7365253e-01 0.0000000e+00 
-3.4209841e-02 -3.7435214e-01 0.0000000e+00 
-2.8967622e-02 -3.7505844e-01 0.0000000e+00 
-4.5673963e-02 -3.7995852e-01 0.0000000e+00 
-4.0403492e-02 -3.8065858e-01 0.0000000e+00 
-3.5135198e-02 -3.8136493e-01 0.0000000e+00 
-2.9868226e-02 -3.8207779e-01 0.0000000e+00 
-4.6656613e-02 -3.8699040e-01 0.0000000e+00 
-4.1362119e-02 -3.8769722e-01 0.0000000e+00 
-3.6069761e-02 -3.8841015e-01 0.0000000e+00 
-3.0778689e-02 -3.8912943e-01 0.0000000e+00 
-4.7646972e-02 -3.9405415e-01 0.0000000e+00 
-4.2329104e-02 -3.9476758e-01 0.0000000e+00 
-3.7013332e-02 -3.9548695e-01 0.0000000e+00 
-3.1698809e-02 -3.9621250e-01 0.0000000e+00 
-4.8644848e-02 -4.0114890e-01 0.0000000e+00 
-4.3304253e-02 -4.0186879e-01 0.0000000e+00 
-3.7965712e-02 -4.0259445e-01 0.0000000e+00 
-3.2628383e-02 -4.0332612e-01 0.0000000e+00 
-4.9650051e-02 -4.0827380e-01 0.0000000e+00 
-4.4287370e-02 -4.0899999e-01 0.0000000e+00 
-3.8926701e-02 -4.0973180e-01 0.0000000e+00 
-3.3567207e-02 -4.1046944e-01 0.0000000e+00 
-5.0662386e-02 -4.1542799e-01 0.0000000e+00 
-4.5278257e-02 -4.1616034e-01 0.0000000e+00 
-3.9896095e-02 -4.1689814e-01 0.0000000e+00 
-3.4515075e-02 -4.1764161e-01 0.0000000e+00 
-5.1681663e-02 -4.2261064e-01 0.0000000e+00 
-4.6276715e-02 -4.2334900e-01 0.0000000e+00 
-4.0873691e-02 -4.2409264e-01 0.0000000e+00 
-3.5471772e-02 -4.2484178e-01 0.0000000e+00 
-5.2707688e-02 -4.2982090e-01 0.0000000e+00 
-4.7282546e-02 -4.3056512e-01 0.0000000e+00 
-4.1859285e-02 -4.3131445e-01 0.0000000e+00 
-3.6437093e-02 -4.3206912e-01 0.0000000e+00 
-5.3740264e-02 -4.3705796e-01 0.0000000e+00 
-4.8295549e-02 -4.3780787e-01 0.0000000e+00 
-4.2852672e-02 -4.3856273e-01 0.0000000e+00 
-3.7410825e-02 -4.3932278e-01 0.0000000e+00 
-5.4779197e-02 -4.4432098e-01 0.0000000e+00 
-4.9315523e-02 -4.4507643e-01 0.0000000e+00 
-4.3853645e-02 -4.4583668e-01 0.0000000e+00 
-3.8392758e-02 -4.4660195e-01 0.0000000e+00 
-5.5824284e-02 -4.5160915e-01 0.0000000e+00 
-5.0342264e-02 -4.5236999e-01 0.0000000e+00 
-4.4861997e-02 -4.5313547e-01 0.0000000e+00 
-3.9382684e-02 -4.5390581e-01 0.0000000e+00 
-5.6875328e-02 -4.5892165e-01 0.0000000e+00 
-5.1375570e-02 -4.5968773e-01 0.0000000e+00 
-4.5877521e-02 -4.6045828e-01 0.0000000e+00 
-4.0380388e-02 -4.6123354e-01 0.0000000e+00 
-5.7932130e-02 -4.6625769e-01 0.0000000e+00 
-5.2415236e-02 -4.6702884e-01 0.0000000e+00 
-4.6900006e-02 -4.6780432e-01 0.0000000e+00 
-4.1385656e-02 -4.6858433e-01 0.0000000e+00 
-5.8994492e-02 -4.7361645e-01 0.0000000e+00 
-5.3461059e-02 -4.7439253e-01 0.0000000e+00 
-4.7929245e-02 -4.7517277e-01 0.0000000e+00 
-4.2398274e-02 -4.7595739e-01 0.0000000e+00 
-6.0062216e-02 -4.8099716e-01 0.0000000e+00 
-5.4512833e-02 -4.8177800e-01 0.0000000e+00 
-4.8965026e-02 -4.8256285e-01 0.0000000e+00 
-4.3418024e-02 -4.8335193e-01 0.0000000e+00 
-6.1135103e-02 -4.8839902e-01 0.0000000e+00 
-5.5570356e-02 -4.8918447e-01 0.0000000e+00 
-5.0007140e-02 -4.8997377e-01 0.0000000e+00 
-4.4444693e-02 -4.9076716e-01 0.0000000e+00 
-6.2212958e-02 -4.9582126e-01 0.0000000e+00 
-5.6633425e-02 -4.9661116e-01 0.0000000e+00 
-5.1055377e-02 -4.9740477e-01 0.0000000e+00 
-4.5478063e-02 -4.9820230e-01 0.0000000e+00 
-6.3295582e-02 -5.0326311e-01 0.0000000e+00 
-5.7701835e-02 -5.0405731e-01 0.0000000e+00 
-5.2109529e-02 -5.0485506e-01 0.0000000e+00 
-4.6517920e-02 -5.0565659e-01 0.0000000e+00 
-6.4382782e-02 -5.1072382e-01 0.0000000e+00 
-5.8775386e-02 -5.1152215e-01 0.0000000e+00 
-5.3169386e-02 -5.1232390e-01 0.0000000e+00 
-4.7564047e-02 -5.1312927e-01 0.0000000e+00 
-6.5474364e-02 -5.1820262e-01 0.0000000e+00 
-5.9853877e-02 -5.1900494e-01 0.0000000e+00 
-5.4234741e-02 -5.1981053e-01 0.0000000e+00 
-4.8616231e-02 -5.2061959e-01 0.0000000e+00 
-6.6570135e-02 -5.2569879e-01 0.0000000e+00 
-6.0937107e-02 -5.2650494e-01 0.0000000e+00 
-5.5305386e-02 -5.2731421e-01 0.0000000e+00 
-4.9674257e-02 -5.2812682e-01 0.0000000e+00 