# vtk DataFile Version 4.0
vtk output
ASCII
DATASET UNSTRUCTURED_GRID
POINTS 604 float
5.5000000e+00 5.9700000e+00 0.0000000e+00 
5.5000000e+00 5.9900000e+00 0.0000000e+00 
5.5266667e+00 5.9700000e+00 0.0000000e+00 
5.5266667e+00 5.9900000e+00 0.0000000e+00 
5.5000000e+00 6.0100000e+00 0.0000000e+00 
5.5266667e+00 6.0100000e+00 0.0000000e+00 
5.5533333e+00 5.9700000e+00 0.0000000e+00 
5.5533333e+00 5.9900000e+00 0.0000000e+00 
5.5000000e+00 6.0300000e+00 0.0000000e+00 
5.5266667e+00 6.0300000e+00 0.0000000e+00 
5.5533333e+00 6.0100000e+00 0.0000000e+00 
5.5800000e+00 5.9700000e+00 0.0000000e+00 
5.5533333e+00 6.0300000e+00 0.0000000e+00 
5.5800000e+00 5.9900000e+00 0.0000000e+00 
5.5800000e+00 6.0100000e+00 0.0000000e+00 
5.5800000e+00 6.0300000e+00 0.0000000e+00 
5.6066667e+00 5.9700000e+00 0.0000000e+00 
5.6066667e+00 5.9900000e+00 0.0000000e+00 
5.6066667e+00 6.0100000e+00 0.0000000e+00 
5.6066667e+00 6.0300000e+00 0.0000000e+00 
5.6333333e+00 5.9700000e+00 0.0000000e+00 
5.6333333e+00 5.9900000e+00 0.0000000e+00 
5.6333333e+00 6.0100000e+00 0.0000000e+00 
5.6333333e+00 6.0300000e+00 0.0000000e+00 
5.6600000e+00 5.9700000e+00 0.0000000e+00 
5.6600000e+00 5.9900000e+00 0.0000000e+00 
5.6600000e+00 6.0100000e+00 0.0000000e+00 
5.6600000e+00 6.0300000e+00 0.0000000e+00 
5.6866667e+00 5.9700000e+00 0.0000000e+00 
5.6866667e+00 5.9900000e+00 0.0000000e+00 
5.6866667e+00 6.0100000e+00 0.0000000e+00 
5.6866667e+00 6.0300000e+00 0.0000000e+00 
5.7133333e+00 5.9700000e+00 0.0000000e+00 
5.7133333e+00 5.9900000e+00 0.0000000e+00 
5.7133333e+00 6.0100000e+00 0.0000000e+00 
5.7133333e+00 6.0300000e+00 0.0000000e+00 
5.7400000e+00 5.9700000e+00 0.0000000e+00 
5.7400000e+00 5.9900000e+00 0.0000000e+00 
5.7400000e+00 6.0100000e+00 0.0000000e+00 
5.7400000e+00 6.0300000e+00 0.0000000e+00 
5.7666667e+00 5.9700000e+00 0.0000000e+00 
5.7666667e+00 5.9900000e+00 0.0000000e+00 
5.7666667e+00 6.0100000e+00 0.0000000e+00 
5.7666667e+00 6.0300000e+00 0.0000000e+00 
5.7933333e+00 5.9700000e+00 0.0000000e+00 
5.7933333e+00 5.9900000e+00 0.0000000e+00 
5.7933333e+00 6.0100000e+00 0.0000000e+00 
5.7933333e+00 6.0300000e+00 0.0000000e+00 
5.8200000e+00 5.9700000e+00 0.0000000e+00 
5.8200000e+00 5.9900000e+00 0.0000000e+00 
5.8200000e+00 6.0100000e+00 0.0000000e+00 
5.8200000e+00 6.0300000e+00 0.0000000e+00 
5.8466667e+00 5.9700000e+00 0.0000000e+00 
5.8466667e+00 5.9900000e+00 0.0000000e+00 
5.8466667e+00 6.0100000e+00 0.0000000e+00 
5.8466667e+00 6.0300000e+00 0.0000000e+00 
5.8733333e+00 5.9700000e+00 0.0000000e+00 
5.8733333e+00 5.9900000e+00 0.0000000e+00 
5.8733333e+00 6.0100000e+00 0.0000000e+00 
5.8733333e+00 6.0300000e+00 0.0000000e+00 
5.9000000e+00 5.9700000e+00 0.0000000e+00 
5.9000000e+00 5.9900000e+00 0.0000000e+00 
5.9000000e+00 6.0100000e+00 0.0000000e+00 
5.9000000e+00 6.0300000e+00 0.0000000e+00 
5.9266667e+00 5.9700000e+00 0.0000000e+00 
5.9266667e+00 5.9900000e+00 0.0000000e+00 
5.9266667e+00 6.0100000e+00 0.0000000e+00 
5.9266667e+00 6.0300000e+00 0.0000000e+00 
5.9533333e+00 5.9700000e+00 0.0000000e+00 
5.9533333e+00 5.9900000e+00 0.0000000e+00 
5.9533333e+00 6.0100000e+00 0.0000000e+00 
5.9533333e+00 6.0300000e+00 0.0000000e+00 
5.9800000e+00 5.9700000e+00 0.0000000e+00 
5.9800000e+00 5.9900000e+00 0.0000000e+00 
5.9800000e+00 6.0100000e+00 0.0000000e+00 
5.9800000e+00 6.0300000e+00 0.0000000e+00 
6.0066667e+00 5.9700000e+00 0.0000000e+00 
6.0066667e+00 5.9900000e+00 0.0000000e+00 
6.0066667e+00 6.0100000e+00 0.0000000e+00 
6.0066667e+00 6.0300000e+00 0.0000000e+00 
6.0333333e+00 5.9700000e+00 0.0000000e+00 
6.0333333e+00 5.9900000e+00 0.0000000e+00 
6.0333333e+00 6.0100000e+00 0.0000000e+00 
6.0333333e+00 6.0300000e+00 0.0000000e+00 
6.0600000e+00 5.9700000e+00 0.0000000e+00 
6.0600000e+00 5.9900000e+00 0.0000000e+00 
6.0600000e+00 6.0100000e+00 0.0000000e+00 
6.0600000e+00 6.0300000e+00 0.0000000e+00 
6.0866667e+00 5.9700000e+00 0.0000000e+00 
6.0866667e+00 5.9900000e+00 0.0000000e+00 
6.0866667e+00 6.0100000e+00 0.0000000e+00 
6.0866667e+00 6.0300000e+00 0.0000000e+00 
6.1133333e+00 5.9700000e+00 0.0000000e+00 
6.1133333e+00 5.9900000e+00 0.0000000e+00 
6.1133333e+00 6.0100000e+00 0.0000000e+00 
6.1133333e+00 6.0300000e+00 0.0000000e+00 
6.1400000e+00 5.9700000e+00 0.0000000e+00 
6.1400000e+00 5.9900000e+00 0.0000000e+00 
6.1400000e+00 6.0100000e+00 0.0000000e+00 
6.1400000e+00 6.0300000e+00 0.0000000e+00 
6.1666667e+00 5.9700000e+00 0.0000000e+00 
6.1666667e+00 5.9900000e+00 0.0000000e+00 
6.1666667e+00 6.0100000e+00 0.0000000e+00 
6.1666667e+00 6.0300000e+00 0.0000000e+00 
6.1933333e+00 5.9700000e+00 0.0000000e+00 
6.1933333e+00 5.9900000e+00 0.0000000e+00 
6.1933333e+00 6.0100000e+00 0.0000000e+00 
6.1933333e+00 6.0300000e+00 0.0000000e+00 
6.2200000e+00 5.9700000e+00 0.0000000e+00 
6.2200000e+00 5.9900000e+00 0.0000000e+00 
6.2200000e+00 6.0100000e+00 0.0000000e+00 
6.2200000e+00 6.0300000e+00 0.0000000e+00 
6.2466667e+00 5.9700000e+00 0.0000000e+00 
6.2466667e+00 5.9900000e+00 0.0000000e+00 
6.2466667e+00 6.0100000e+00 0.0000000e+00 
6.2466667e+00 6.0300000e+00 0.0000000e+00 
6.2733333e+00 5.9700000e+00 0.0000000e+00 
6.2733333e+00 5.9900000e+00 0.0000000e+00 
6.2733333e+00 6.0100000e+00 0.0000000e+00 
6.2733333e+00 6.0300000e+00 0.0000000e+00 
6.3000000e+00 5.9700000e+00 0.0000000e+00 
6.3000000e+00 5.9900000e+00 0.0000000e+00 
6.3000000e+00 6.0100000e+00 0.0000000e+00 
6.3000000e+00 6.0300000e+00 0.0000000e+00 
6.3266667e+00 5.9700000e+00 0.0000000e+00 
6.3266667e+00 5.9900000e+00 0.0000000e+00 
6.3266667e+00 6.0100000e+00 0.0000000e+00 
6.3266667e+00 6.0300000e+00 0.0000000e+00 
6.3533333e+00 5.9700000e+00 0.0000000e+00 
6.3533333e+00 5.9900000e+00 0.0000000e+00 
6.3533333e+00 6.0100000e+00 0.0000000e+00 
6.3533333e+00 6.0300000e+00 0.0000000e+00 
6.3800000e+00 5.9700000e+00 0.0000000e+00 
6.3800000e+00 5.9900000e+00 0.0000000e+00 
6.3800000e+00 6.0100000e+00 0.0000000e+00 
6.3800000e+00 6.0300000e+00 0.0000000e+00 
6.4066667e+00 5.9700000e+00 0.0000000e+00 
6.4066667e+00 5.9900000e+00 0.0000000e+00 
6.4066667e+00 6.0100000e+00 0.0000000e+00 
6.4066667e+00 6.0300000e+00 0.0000000e+00 
6.4333333e+00 5.9700000e+00 0.0000000e+00 
6.4333333e+00 5.9900000e+00 0.0000000e+00 
6.4333333e+00 6.0100000e+00 0.0000000e+00 
6.4333333e+00 6.0300000e+00 0.0000000e+00 
6.4600000e+00 5.9700000e+00 0.0000000e+00 
6.4600000e+00 5.9900000e+00 0.0000000e+00 
6.4600000e+00 6.0100000e+00 0.0000000e+00 
6.4600000e+00 6.0300000e+00 0.0000000e+00 
6.4866667e+00 5.9700000e+00 0.0000000e+00 
6.4866667e+00 5.9900000e+00 0.0000000e+00 
6.4866667e+00 6.0100000e+00 0.0000000e+00 
6.4866667e+00 6.0300000e+00 0.0000000e+00 
6.5133333e+00 5.9700000e+00 0.0000000e+00 
6.5133333e+00 5.9900000e+00 0.0000000e+00 
6.5133333e+00 6.0100000e+00 0.0000000e+00 
6.5133333e+00 6.0300000e+00 0.0000000e+00 
6.5400000e+00 5.9700000e+00 0.0000000e+00 
6.5400000e+00 5.9900000e+00 0.0000000e+00 
6.5400000e+00 6.0100000e+00 0.0000000e+00 
6.5400000e+00 6.0300000e+00 0.0000000e+00 
6.5666667e+00 5.9700000e+00 0.0000000e+00 
6.5666667e+00 5.9900000e+00 0.0000000e+00 
6.5666667e+00 6.0100000e+00 0.0000000e+00 
6.5666667e+00 6.0300000e+00 0.0000000e+00 
6.5933333e+00 5.9700000e+00 0.0000000e+00 
6.5933333e+00 5.9900000e+00 0.0000000e+00 
6.5933333e+00 6.0100000e+00 0.0000000e+00 
6.5933333e+00 6.0300000e+00 0.0000000e+00 
6.6200000e+00 5.9700000e+00 0.0000000e+00 
6.6200000e+00 5.9900000e+00 0.0000000e+00 
6.6200000e+00 6.0100000e+00 0.0000000e+00 
6.6200000e+00 6.0300000e+00 0.0000000e+00 
6.6466667e+00 5.9700000e+00 0.0000000e+00 
6.6466667e+00 5.9900000e+00 0.0000000e+00 
6.6466667e+00 6.0100000e+00 0.0000000e+00 
6.6466667e+00 6.0300000e+00 0.0000000e+00 
6.6733333e+00 5.9700000e+00 0.0000000e+00 
6.6733333e+00 5.9900000e+00 0.0000000e+00 
6.6733333e+00 6.0100000e+00 0.0000000e+00 
6.6733333e+00 6.0300000e+00 0.0000000e+00 
6.7000000e+00 5.9700000e+00 0.0000000e+00 
6.7000000e+00 5.9900000e+00 0.0000000e+00 
6.7000000e+00 6.0100000e+00 0.0000000e+00 
6.7000000e+00 6.0300000e+00 0.0000000e+00 
6.7266667e+00 5.9700000e+00 0.0000000e+00 
6.7266667e+00 5.9900000e+00 0.0000000e+00 
6.7266667e+00 6.0100000e+00 0.0000000e+00 
6.7266667e+00 6.0300000e+00 0.0000000e+00 
6.7533333e+00 5.9700000e+00 0.0000000e+00 
6.7533333e+00 5.9900000e+00 0.0000000e+00 
6.7533333e+00 6.0100000e+00 0.0000000e+00 
6.7533333e+00 6.0300000e+00 0.0000000e+00 
6.7800000e+00 5.9700000e+00 0.0000000e+00 
6.7800000e+00 5.9900000e+00 0.0000000e+00 
6.7800000e+00 6.0100000e+00 0.0000000e+00 
6.7800000e+00 6.0300000e+00 0.0000000e+00 
6.8066667e+00 5.9700000e+00 0.0000000e+00 
6.8066667e+00 5.9900000e+00 0.0000000e+00 
6.8066667e+00 6.0100000e+00 0.0000000e+00 
6.8066667e+00 6.0300000e+00 0.0000000e+00 
6.8333333e+00 5.9700000e+00 0.0000000e+00 
6.8333333e+00 5.9900000e+00 0.0000000e+00 
6.8333333e+00 6.0100000e+00 0.0000000e+00 
6.8333333e+00 6.0300000e+00 0.0000000e+00 
6.8600000e+00 5.9700000e+00 0.0000000e+00 
6.8600000e+00 5.9900000e+00 0.0000000e+00 
6.8600000e+00 6.0100000e+00 0.0000000e+00 
6.8600000e+00 6.0300000e+00 0.0000000e+00 
6.8866667e+00 5.9700000e+00 0.0000000e+00 
6.8866667e+00 5.9900000e+00 0.0000000e+00 
6.8866667e+00 6.0100000e+00 0.0000000e+00 
6.8866667e+00 6.0300000e+00 0.0000000e+00 
6.9133333e+00 5.9700000e+00 0.0000000e+00 
6.9133333e+00 5.9900000e+00 0.0000000e+00 
6.9133333e+00 6.0100000e+00 0.0000000e+00 
6.9133333e+00 6.0300000e+00 0.0000000e+00 
6.9400000e+00 5.9700000e+00 0.0000000e+00 
6.9400000e+00 5.9900000e+00 0.0000000e+00 
6.9400000e+00 6.0100000e+00 0.0000000e+00 
6.9400000e+00 6.0300000e+00 0.0000000e+00 
6.9666667e+00 5.9700000e+00 0.0000000e+00 
6.9666667e+00 5.9900000e+00 0.0000000e+00 
6.9666667e+00 6.0100000e+00 0.0000000e+00 
6.9666667e+00 6.0300000e+00 0.0000000e+00 
6.9933333e+00 5.9700000e+00 0.0000000e+00 
6.9933333e+00 5.9900000e+00 0.0000000e+00 
6.9933333e+00 6.0100000e+00 0.0000000e+00 
6.9933333e+00 6.0300000e+00 0.0000000e+00 
7.0200000e+00 5.9700000e+00 0.0000000e+00 
7.0200000e+00 5.9900000e+00 0.0000000e+00 
[...]
POINT_DATA 604
FIELD FieldData 2
DISPLACEMENT 3 604  float
0.0000000e+00 0.0000000e+00 0.0000000e+00 
0.0000000e+00 0.0000000e+00 0.0000000e+00 
-3.3208535e-07 -2.0632477e-07 0.0000000e+00 
-8.7755083e-08 -1.3110974e-07 0.0000000e+00 
0.0000000e+00 0.0000000e+00 0.0000000e+00 
1.4407390e-07 -1.3217535e-07 0.0000000e+00 
-6.7947904e-07 -6.8356325e-07 0.0000000e+00 
-1.8968425e-07 -6.2022271e-07 0.0000000e+00 
0.0000000e+00 0.0000000e+00 0.0000000e+00 
3.8922572e-07 -2.0986381e-07 0.0000000e+00 
3.0331731e-07 -6.2146719e-07 0.0000000e+00 
-1.0292514e-06 -1.5060301e-06 0.0000000e+00 
7.9324710e-07 -6.8715633e-07 0.0000000e+00 
-2.8630015e-07 -1.4408835e-06 0.0000000e+00 
4.5688274e-07 -1.4419606e-06 0.0000000e+00 
1.1999946e-06 -1.5092481e-06 0.0000000e+00 
-1.3799373e-06 -2.6645852e-06 0.0000000e+00 
-3.8429002e-07 -2.5994807e-06 0.0000000e+00 
6.1155284e-07 -2.6005132e-06 0.0000000e+00 
1.6073418e-06 -2.6677555e-06 0.0000000e+00 
-1.7310198e-06 -4.1613232e-06 0.0000000e+00 
-4.8243776e-07 -4.0959845e-06 0.0000000e+00 
7.6602181e-07 -4.0968597e-06 0.0000000e+00 
2.0147982e-06 -4.1638651e-06 0.0000000e+00 
-2.0818428e-06 -5.9953817e-06 0.0000000e+00 
-5.8060567e-07 -5.9302243e-06 0.0000000e+00 
9.2015487e-07 -5.9310325e-06 0.0000000e+00 
2.4215323e-06 -5.9979064e-06 0.0000000e+00 
-2.4316507e-06 -8.1667847e-06 0.0000000e+00 
-6.7859444e-07 -8.1015444e-06 0.0000000e+00 
1.0736530e-06 -8.1021221e-06 0.0000000e+00 
2.8268179e-06 -8.1683908e-06 0.0000000e+00 
-2.7797253e-06 -1.0673107e-05 0.0000000e+00 
-7.7615424e-07 -1.0608323e-05 0.0000000e+00 
1.2262856e-06 -1.0608834e-05 0.0000000e+00 
3.2299339e-06 -1.0674739e-05 0.0000000e+00 
-3.1254459e-06 -1.3513321e-05 0.0000000e+00 
-8.7303604e-07 -1.3448662e-05 0.0000000e+00 
1.3778421e-06 -1.3448943e-05 0.0000000e+00 
3.6301309e-06 -1.3513994e-05 0.0000000e+00 
-3.4679520e-06 -1.6683604e-05 0.0000000e+00 
-9.6901053e-07 -1.6619659e-05 0.0000000e+00 
1.5281287e-06 -1.6619881e-05 0.0000000e+00 
4.0268994e-06 -1.6684374e-05 0.0000000e+00 
-3.8067866e-06 -2.0181820e-05 0.0000000e+00 
-1.0637871e-06 -2.0118264e-05 0.0000000e+00 
1.6769628e-06 -2.0118259e-05 0.0000000e+00 
4.4195293e-06 -2.0181615e-05 0.0000000e+00 
-4.1409913e-06 -2.4003131e-05 0.0000000e+00 
-1.1571300e-06 -2.3940550e-05 0.0000000e+00 
1.8241711e-06 -2.3940519e-05 0.0000000e+00 
4.8075371e-06 -2.4003135e-05 0.0000000e+00 
-4.4701070e-06 -2.8144280e-05 0.0000000e+00 
-1.2487202e-06 -2.8082338e-05 0.0000000e+00 
1.9696006e-06 -2.8082089e-05 0.0000000e+00 
5.1901143e-06 -2.8143327e-05 0.0000000e+00 
-4.7930415e-06 -3.2599139e-05 0.0000000e+00 
-1.3382801e-06 -3.2538464e-05 0.0000000e+00 
2.1130691e-06 -3.2538270e-05 0.0000000e+00 
5.5669071e-06 -3.2598567e-05 0.0000000e+00 
-5.1093987e-06 -3.7363187e-05 0.0000000e+00 
-1.4253760e-06 -3.7303534e-05 0.0000000e+00 
2.2545423e-06 -3.7303208e-05 0.0000000e+00 
5.9368796e-06 -3.7362047e-05 0.0000000e+00 
-5.4179771e-06 -4.2429739e-05 0.0000000e+00 
-1.5098321e-06 -4.2371263e-05 0.0000000e+00 
2.3936838e-06 -4.2370706e-05 0.0000000e+00 
6.2997894e-06 -4.2427943e-05 0.0000000e+00 
-5.7176997e-06 -4.7791224e-05 0.0000000e+00 
-1.5911167e-06 -4.7734505e-05 0.0000000e+00 
2.5305167e-06 -4.7734156e-05 0.0000000e+00 
6.6551467e-06 -4.7790148e-05 0.0000000e+00 
-6.0081212e-06 -5.3440874e-05 0.0000000e+00 
-1.6686774e-06 -5.3385876e-05 0.0000000e+00 
2.6650694e-06 -5.3385659e-05 0.0000000e+00 
7.0017564e-06 -5.3440052e-05 0.0000000e+00 
-6.2875741e-06 -5.9369823e-05 0.0000000e+00 
-1.7422100e-06 -5.9316921e-05 0.0000000e+00 
2.7971079e-06 -5.9316980e-05 0.0000000e+00 
7.3397315e-06 -5.9369920e-05 0.0000000e+00 
-6.5556330e-06 -6.5569105e-05 0.0000000e+00 
-1.8110836e-06 -6.5518620e-05 0.0000000e+00 
2.9266333e-06 -6.5519052e-05 0.0000000e+00 
7.6677859e-06 -6.5570334e-05 0.0000000e+00 
-6.8105389e-06 -7.2029282e-05 0.0000000e+00 
-1.8749165e-06 -7.1981284e-05 0.0000000e+00 
3.0533741e-06 -7.1982130e-05 0.0000000e+00 
7.9855984e-06 -7.2031657e-05 0.0000000e+00 
-7.0515512e-06 -7.8739010e-05 0.0000000e+00 
-1.9331067e-06 -7.8694031e-05 0.0000000e+00 
3.1772656e-06 -7.8695423e-05 0.0000000e+00 
8.2916898e-06 -7.8743235e-05 0.0000000e+00 
-7.2769691e-06 -8.5687271e-05 0.0000000e+00 
-1.9852261e-06 -8.5645195e-05 0.0000000e+00 
3.2979672e-06 -8.5647168e-05 0.0000000e+00 
8.5858286e-06 -8.5692868e-05 0.0000000e+00 
-7.4860034e-06 -9.2859949e-05 0.0000000e+00 
-2.0304963e-06 -9.2821844e-05 0.0000000e+00 
3.4155177e-06 -9.2824784e-05 0.0000000e+00 
8.8663140e-06 -9.2868924e-05 0.0000000e+00 
-7.6765074e-06 -1.0024525e-04 0.0000000e+00 
-2.0684643e-06 -1.0021051e-04 0.0000000e+00 
3.5295269e-06 -1.0021414e-04 0.0000000e+00 
9.1329071e-06 -1.0025576e-04 0.0000000e+00 
-7.8475044e-06 -1.0782577e-04 0.0000000e+00 
-2.0984168e-06 -1.0779582e-04 0.0000000e+00 
3.6398756e-06 -1.0780065e-04 0.0000000e+00 
9.3839060e-06 -1.0784061e-04 0.0000000e+00 
-7.9972459e-06 -1.1558828e-04 0.0000000e+00 
-2.1198461e-06 -1.1556218e-04 0.0000000e+00 
3.7461255e-06 -1.1556788e-04 0.0000000e+00 
9.6185844e-06 -1.1560484e-04 0.0000000e+00 
-8.1245469e-06 -1.2351232e-04 0.0000000e+00 
-2.1321065e-06 -1.2349171e-04 0.0000000e+00 
3.8482066e-06 -1.2349891e-04 0.0000000e+00 
9.8351644e-06 -1.2353433e-04 0.0000000e+00 
-8.2277271e-06 -1.3158259e-04 0.0000000e+00 
-2.1348140e-06 -1.3156629e-04 0.0000000e+00 
3.9456617e-06 -1.3157431e-04 0.0000000e+00 
1.0033408e-05 -1.3160636e-04 0.0000000e+00 
-8.3057868e-06 -1.3977564e-04 0.0000000e+00 
-2.1274004e-06 -1.3976550e-04 0.0000000e+00 
4.0383073e-06 -1.3977566e-04 0.0000000e+00 
1.0212101e-05 -1.3980596e-04 0.0000000e+00 
-8.3576712e-06 -1.4807296e-04 0.0000000e+00 
-2.1088012e-06 -1.4806930e-04 0.0000000e+00 
4.1268035e-06 -1.4808170e-04 0.0000000e+00 
1.0370148e-05 -1.4811059e-04 0.0000000e+00 
-8.3825675e-06 -1.5645583e-04 0.0000000e+00 
-2.0794751e-06 -1.5645682e-04 0.0000000e+00 
4.2102288e-06 -1.5647022e-04 0.0000000e+00 
1.0507728e-05 -1.5649530e-04 0.0000000e+00 
-8.3804401e-06 -1.6489761e-04 0.0000000e+00 
-2.0391605e-06 -1.6490554e-04 0.0000000e+00 
4.2886716e-06 -1.6492105e-04 0.0000000e+00 
1.0624414e-05 -1.6494495e-04 0.0000000e+00 
-8.3511039e-06 -1.7338218e-04 0.0000000e+00 
-1.9878197e-06 -1.7339472e-04 0.0000000e+00 
4.3621523e-06 -1.7341138e-04 0.0000000e+00 
1.0719976e-05 -1.7343136e-04 0.0000000e+00 
-8.2947549e-06 -1.8188235e-04 0.0000000e+00 
-1.9255101e-06 -1.8190183e-04 0.0000000e+00 
4.4307655e-06 -1.8192065e-04 0.0000000e+00 
1.0794722e-05 -1.8193969e-04 0.0000000e+00 
-8.2120977e-06 -1.9038251e-04 0.0000000e+00 
-1.8524345e-06 -1.9040638e-04 0.0000000e+00 
4.4946691e-06 -1.9042635e-04 0.0000000e+00 
1.0849114e-05 -1.9044162e-04 0.0000000e+00 
-8.1038557e-06 -1.9885622e-04 0.0000000e+00 
-1.7688811e-06 -1.9888680e-04 0.0000000e+00 
4.5540791e-06 -1.9890895e-04 0.0000000e+00 
1.0884122e-05 -1.9892359e-04 0.0000000e+00 
-7.9712078e-06 -2.0728955e-04 0.0000000e+00 
-1.6752539e-06 -2.0732408e-04 0.0000000e+00 
4.6093464e-06 -2.0734734e-04 0.0000000e+00 
1.0900383e-05 -2.0735855e-04 0.0000000e+00 
-7.8153679e-06 -2.1565772e-04 0.0000000e+00 
-1.5720406e-06 -2.1569854e-04 0.0000000e+00 
4.6606931e-06 -2.1572388e-04 0.0000000e+00 
1.0899533e-05 -2.1573466e-04 0.0000000e+00 
-7.6380061e-06 -2.2394941e-04 0.0000000e+00 
-1.4597768e-06 -2.2399363e-04 0.0000000e+00 
4.7085937e-06 -2.2402002e-04 0.0000000e+00 
1.0882362e-05 -2.2402784e-04 0.0000000e+00 
-7.4404973e-06 -2.3214237e-04 0.0000000e+00 
-1.3391018e-06 -2.3219223e-04 0.0000000e+00 
4.7533652e-06 -2.3222060e-04 0.0000000e+00 
1.0850756e-05 -2.3222837e-04 0.0000000e+00 
-7.2249202e-06 -2.4022790e-04 0.0000000e+00 
-1.2106118e-06 -2.4028054e-04 0.0000000e+00 
4.7955326e-06 -2.4030988e-04 0.0000000e+00 
1.0805819e-05 -2.4031521e-04 0.0000000e+00 
-6.9927238e-06 -2.4818695e-04 0.0000000e+00 
-1.0750629e-06 -2.4824443e-04 0.0000000e+00 
4.8354177e-06 -2.4827557e-04 0.0000000e+00 
1.0749592e-05 -2.4828117e-04 0.0000000e+00 
-6.7460830e-06 -2.5601349e-04 0.0000000e+00 
-9.3312089e-07 -2.5607313e-04 0.0000000e+00 
4.8735289e-06 -2.5610501e-04 0.0000000e+00 
1.0683144e-05 -2.5610877e-04 0.0000000e+00 
-6.4862867e-06 -2.6369184e-04 0.0000000e+00 
-7.8566070e-07 -2.6375538e-04 0.0000000e+00 
4.9100853e-06 -2.6378912e-04 0.0000000e+00 
1.0608762e-05 -2.6379332e-04 0.0000000e+00 
-6.2157849e-06 -2.7121638e-04 0.0000000e+00 
-6.3263448e-07 -2.7128324e-04 0.0000000e+00 
4.9462342e-06 -2.7131880e-04 0.0000000e+00 
1.0527263e-05 -2.7132341e-04 0.0000000e+00 
-5.9363297e-06 -2.7858218e-04 0.0000000e+00 
-4.7550262e-07 -2.7865026e-04 0.0000000e+00 
4.9816011e-06 -2.7868632e-04 0.0000000e+00 
1.0440059e-05 -2.7868990e-04 0.0000000e+00 
-5.6492107e-06 -2.8577892e-04 0.0000000e+00 
-3.1498964e-07 -2.8584966e-04 0.0000000e+00 
5.0164395e-06 -2.8588689e-04 0.0000000e+00 
1.0348929e-05 -2.8589121e-04 0.0000000e+00 
-5.3565849e-06 -2.9280635e-04 0.0000000e+00 
-1.5156982e-07 -2.9287774e-04 0.0000000e+00 
5.0512341e-06 -2.9291549e-04 0.0000000e+00 
1.0254496e-05 -2.9291920e-04 0.0000000e+00 
-5.0594375e-06 -2.9965738e-04 0.0000000e+00 
1.4055566e-08 -2.9973069e-04 0.0000000e+00 
5.0861531e-06 -2.9976941e-04 0.0000000e+00 
1.0158456e-05 -2.9977404e-04 0.0000000e+00 
-4.7596137e-06 -3.0633352e-04 0.0000000e+00 
1.8143313e-07 -3.0640702e-04 0.0000000e+00 
5.1215637e-06 -3.0644613e-04 0.0000000e+00 
1.0061386e-05 -3.0645054e-04 0.0000000e+00 
-4.4579062e-06 -3.1283043e-04 0.0000000e+00 
3.4993213e-07 -3.1290517e-04 0.0000000e+00 
5.1575744e-06 -3.1294504e-04 0.0000000e+00 
9.9647475e-06 -3.1295048e-04 0.0000000e+00 
-4.1559444e-06 -3.1915100e-04 0.0000000e+00 
5.1917651e-07 -3.1922554e-04 0.0000000e+00 
5.1944865e-06 -3.1926571e-04 0.0000000e+00 
9.8689098e-06 -3.1927125e-04 0.0000000e+00 
-3.8543336e-06 -3.2529328e-04 0.0000000e+00 
6.8862707e-07 -3.2536848e-04 0.0000000e+00 
5.2323621e-06 -3.2540922e-04 0.0000000e+00 
9.7750835e-06 -3.2541583e-04 0.0000000e+00 
-3.5544021e-06 -3.3126122e-04 0.0000000e+00 
8.5798286e-07 -3.3133592e-04 0.0000000e+00 
5.2714294e-06 -3.3137685e-04 0.0000000e+00 
9.6835587e-06 -3.3138383e-04 0.0000000e+00 
-3.2565631e-06 -3.3705480e-04 0.0000000e+00 
1.0268067e-06 -3.3712970e-04 0.0000000e+00 
5.3117237e-06 -3.3717105e-04 0.0000000e+00 
9.5952719e-06 -3.3717913e-04 0.0000000e+00 
-2.9619124e-06 -3.4267871e-04 0.0000000e+00 
1.1948749e-06 -3.4275288e-04 0.0000000e+00 
5.3534049e-06 -3.4279435e-04 0.0000000e+00 
9.5103486e-06 -3.4280297e-04 0.0000000e+00 
-2.6706901e-06 -3.4813444e-04 0.0000000e+00 
1.3618306e-06 -3.4820843e-04 0.0000000e+00 
5.3964637e-06 -3.4825017e-04 0.0000000e+00 
9.4294948e-06 -3.4825989e-04 0.0000000e+00 
-2.3837332e-06 -3.5342710e-04 0.0000000e+00 
1.5275079e-06 -3.5350020e-04 0.0000000e+00 
5.4409943e-06 -3.5354197e-04 0.0000000e+00 
9.3527505e-06 -3.5355235e-04 0.0000000e+00 
-2.1011048e-06 -3.5855931e-04 0.0000000e+00 
1.6916027e-06 -3.5863190e-04 0.0000000e+00 
5.4869451e-06 -3.5867385e-04 0.0000000e+00 
9.2806627e-06 -3.5868528e-04 0.0000000e+00 
-1.8234680e-06 -3.6353599e-04 0.0000000e+00 
1.8540828e-06 -3.6360787e-04 0.0000000e+00 
5.5344192e-06 -3.6364996e-04 0.0000000e+00 
9.2131741e-06 -3.6366233e-04 0.0000000e+00 
-1.5511667e-06 -3.6836179e-04 0.0000000e+00 
2.0146507e-06 -3.6843264e-04 0.0000000e+00 
5.5832699e-06 -3.6847463e-04 0.0000000e+00 
9.1502343e-06 -3.6848774e-04 0.0000000e+00 
-1.2841398e-06 -3.7304053e-04 0.0000000e+00 
2.1731419e-06 -3.7311052e-04 0.0000000e+00 
5.6334021e-06 -3.7315247e-04 0.0000000e+00 
9.0920996e-06 -3.7316644e-04 0.0000000e+00 
-1.0228005e-06 -3.7757728e-04 0.0000000e+00 
2.3295228e-06 -3.7764620e-04 0.0000000e+00 
5.6848196e-06 -3.7768801e-04 0.0000000e+00 
9.0385528e-06 -3.7770272e-04 0.0000000e+00 
-7.6698959e-07 -3.8197628e-04 0.0000000e+00 
2.4836544e-06 -3.8204420e-04 0.0000000e+00 
5.7374162e-06 -3.8208588e-04 0.0000000e+00 
8.9897607e-06 -3.8210136e-04 0.0000000e+00 
-5.1702406e-07 -3.8624233e-04 0.0000000e+00 
2.6355225e-06 -3.8630917e-04 0.0000000e+00 
5.7911653e-06 -3.8635067e-04 0.0000000e+00 
8.9454021e-06 -3.8636687e-04 0.0000000e+00 
-2.7272078e-07 -3.9037992e-04 0.0000000e+00 
2.7850241e-06 -3.9044566e-04 0.0000000e+00 
5.8459502e-06 -3.9048694e-04 0.0000000e+00 
8.9055774e-06 -3.9050379e-04 0.0000000e+00 
-3.4272551e-08 -3.9439358e-04 0.0000000e+00 
2.9321590e-06 -3.9445823e-04 0.0000000e+00 
5.9017285e-06 -3.9449929e-04 0.0000000e+00 
8.8700475e-06 -3.9451682e-04 0.0000000e+00 
1.9854469e-07 -3.9828789e-04 0.0000000e+00 
3.0768526e-06 -3.9835138e-04 0.0000000e+00 
5.9583936e-06 -3.9839217e-04 0.0000000e+00 
8.8388417e-06 -3.9841026e-04 0.0000000e+00 
4.2552559e-07 -4.0206705e-04 0.0000000e+00 
3.2191233e-06 -4.0212947e-04 0.0000000e+00 
6.0158968e-06 -4.0217001e-04 0.0000000e+00 
8.8116143e-06 -4.0218874e-04 0.0000000e+00 
6.4689357e-07 -4.0573571e-04 0.0000000e+00 
3.3589086e-06 -4.0579690e-04 0.0000000e+00 
6.0741096e-06 -4.0583708e-04 0.0000000e+00 
8.7883721e-06 -4.0585622e-04 0.0000000e+00 
8.6262509e-07 -4.0929763e-04 0.0000000e+00 
3.4962322e-06 -4.0935779e-04 0.0000000e+00 
6.1329770e-06 -4.0939769e-04 0.0000000e+00 
8.7688481e-06 -4.0941742e-04 0.0000000e+00 
1.0729223e-06 -4.1275740e-04 0.0000000e+00 
3.6310796e-06 -4.1281633e-04 0.0000000e+00 
6.1924203e-06 -4.1285586e-04 0.0000000e+00 
8.7529906e-06 -4.1287594e-04 0.0000000e+00 
1.2776846e-06 -4.1611854e-04 0.0000000e+00 
3.7634840e-06 -4.1617646e-04 0.0000000e+00 
6.2523926e-06 -4.1621570e-04 0.0000000e+00 
8.7405724e-06 -4.1623631e-04 0.0000000e+00 
1.4770959e-06 -4.1938554e-04 0.0000000e+00 
3.8934303e-06 -4.1944223e-04 0.0000000e+00 
6.3128052e-06 -4.1948100e-04 0.0000000e+00 
8.7315315e-06 -4.1950191e-04 0.0000000e+00 
1.6712980e-06 -4.2256187e-04 0.0000000e+00 
4.0208244e-06 -4.2261733e-04 0.0000000e+00 
6.3734893e-06 -4.2265564e-04 0.0000000e+00 
8.7256347e-06 -4.2267673e-04 0.0000000e+00 
1.8601867e-06 -4.2565093e-04 0.0000000e+00 
4.1457911e-06 -4.2570544e-04 0.0000000e+00 
6.4344653e-06 -4.2574342e-04 0.0000000e+00 
8.7227066e-06 -4.2576498e-04 0.0000000e+00 
2.0439804e-06 -4.2865705e-04 0.0000000e+00 
4.2683146e-06 -4.2871030e-04 0.0000000e+00 
6.4956629e-06 -4.2874782e-04 0.0000000e+00 
8.7226572e-06 -4.2876953e-04 0.0000000e+00 
2.2228118e-06 -4.3158289e-04 0.0000000e+00 
4.3884242e-06 -4.3163523e-04 0.0000000e+00 
6.5570239e-06 -4.3167239e-04 0.0000000e+00 
8.7253105e-06 -4.3169451e-04 0.0000000e+00 
2.3968055e-06 -4.3443253e-04 0.0000000e+00 
4.5061547e-06 -4.3448368e-04 0.0000000e+00 
6.6184833e-06 -4.3452039e-04 0.0000000e+00 
8.7306025e-06 -4.3454258e-04 0.0000000e+00 
2.5659899e-06 -4.3720858e-04 0.0000000e+00 
4.6215377e-06 -4.3725884e-04 0.0000000e+00 
6.6799998e-06 -4.3729520e-04 0.0000000e+00 
8.7383088e-06 -4.3731776e-04 0.0000000e+00 
2.7305293e-06 -4.3991493e-04 0.0000000e+00 
4.7345763e-06 -4.3996401e-04 0.0000000e+00 
6.7415109e-06 -4.3999988e-04 0.0000000e+00 
8.7483327e-06 -4.4002245e-04 0.0000000e+00 
2.8904811e-06 -4.4255386e-04 0.0000000e+00 
4.8453046e-06 -4.4260210e-04 0.0000000e+00 
6.8029662e-06 -4.4263760e-04 0.0000000e+00 
8.7605812e-06 -4.4266049e-04 0.0000000e+00 
3.0460003e-06 -4.4512912e-04 0.0000000e+00 
4.9537401e-06 -4.4517619e-04 0.0000000e+00 
6.8643159e-06 -4.4521121e-04 0.0000000e+00 
8.7749672e-06 -4.4523410e-04 0.0000000e+00 
3.1971047e-06 -4.4764272e-04 0.0000000e+00 
5.0599141e-06 -4.4768898e-04 0.0000000e+00 
6.9255250e-06 -4.4772364e-04 0.0000000e+00 
8.7912225e-06 -4.4774680e-04 0.0000000e+00 
3.3438855e-06 -4.5009826e-04 0.0000000e+00 
5.1638301e-06 -4.5014336e-04 0.0000000e+00 
6.9865273e-06 -4.5017749e-04 0.0000000e+00 
8.8093075e-06 -4.5020055e-04 0.0000000e+00 
3.4864476e-06 -4.5249760e-04 0.0000000e+00 
5.2655045e-06 -4.5254190e-04 0.0000000e+00 
7.0472965e-06 -4.5257566e-04 0.0000000e+00 
8.8292276e-06 -4.5259897e-04 0.0000000e+00 
3.6248492e-06 -4.5484414e-04 0.0000000e+00 
5.3649992e-06 -4.5488738e-04 0.0000000e+00 
7.1078410e-06 -4.5492068e-04 0.0000000e+00 
8.8508841e-06 -4.5494395e-04 0.0000000e+00 
3.7591966e-06 -4.5713979e-04 0.0000000e+00 
5.4623422e-06 -4.5718227e-04 0.0000000e+00 
7.1681370e-06 -4.5721521e-04 0.0000000e+00 
8.8741414e-06 -4.5723870e-04 0.0000000e+00 
3.8895653e-06 -4.5938772e-04 0.0000000e+00 
5.5575628e-06 -4.5942919e-04 0.0000000e+00 
7.2281350e-06 -4.5946160e-04 0.0000000e+00 
8.8989299e-06 -4.5948498e-04 0.0000000e+00 
4.0160308e-06 -4.6159012e-04 0.0000000e+00 
5.6505616e-06 -4.6163054e-04 0.0000000e+00 
7.2876732e-06 -4.6166239e-04 0.0000000e+00 
8.9251162e-06 -4.6168562e-04 0.0000000e+00 
4.1386672e-06 -4.6374884e-04 0.0000000e+00 
5.7414796e-06 -4.6378854e-04 0.0000000e+00 
7.3468118e-06 -4.6382003e-04 0.0000000e+00 
8.9525763e-06 -4.6384342e-04 0.0000000e+00 
4.2576658e-06 -4.6586688e-04 0.0000000e+00 
5.8303491e-06 -4.6590556e-04 0.0000000e+00 
7.4055151e-06 -4.6593655e-04 0.0000000e+00 
8.9811598e-06 -4.6595977e-04 0.0000000e+00 
4.3731223e-06 -4.6794544e-04 0.0000000e+00 
5.9172058e-06 -4.6798346e-04 0.0000000e+00 
7.4637317e-06 -4.6801409e-04 0.0000000e+00 
9.0107749e-06 -4.6803741e-04 0.0000000e+00 
4.4851251e-06 -4.6998732e-04 0.0000000e+00 
6.0020969e-06 -4.7002436e-04 0.0000000e+00 
7.5214193e-06 -4.7005449e-04 0.0000000e+00 
9.0413239e-06 -4.7007761e-04 0.0000000e+00 
4.5938881e-06 -4.7199354e-04 0.0000000e+00 
6.0850470e-06 -4.7202996e-04 0.0000000e+00 
7.5785503e-06 -4.7205972e-04 0.0000000e+00 
9.0726600e-06 -4.7208292e-04 0.0000000e+00 
4.6994486e-06 -4.7396659e-04 0.0000000e+00 
6.1661156e-06 -4.7400214e-04 0.0000000e+00 
7.6351100e-06 -4.7403144e-04 0.0000000e+00 
9.1047103e-06 -4.7405440e-04 0.0000000e+00 
4.8018475e-06 -4.7590765e-04 0.0000000e+00 
6.2453250e-06 -4.7594259e-04 0.0000000e+00 
7.6910671e-06 -4.7597152e-04 0.0000000e+00 
9.1374826e-06 -4.7599453e-04 0.0000000e+00 
4.9012221e-06 -4.7781903e-04 0.0000000e+00 
6.3226785e-06 -4.7785308e-04 0.0000000e+00 
7.7463939e-06 -4.7788155e-04 0.0000000e+00 
9.1708797e-06 -4.7790434e-04 0.0000000e+00 
4.9975893e-06 -4.7970153e-04 0.0000000e+00 
6.3982047e-06 -4.7973500e-04 0.0000000e+00 
7.8010664e-06 -4.7976310e-04 0.0000000e+00 
9.2046814e-06 -4.7978591e-04 0.0000000e+00 
5.0909932e-06 -4.8155738e-04 0.0000000e+00 
6.4719174e-06 -4.8158998e-04 0.0000000e+00 
7.8550112e-06 -4.8161757e-04 0.0000000e+00 
9.2388805e-06 -4.8164002e-04 0.0000000e+00 
5.1815995e-06 -4.8338734e-04 0.0000000e+00 
6.5438332e-06 -4.8341939e-04 0.0000000e+00 
7.9082074e-06 -4.8344659e-04 0.0000000e+00 
9.2734201e-06 -4.8346905e-04 0.0000000e+00 
5.2694894e-06 -4.8519341e-04 0.0000000e+00 
6.6140132e-06 -4.8522468e-04 0.0000000e+00 
7.9606661e-06 -4.8525144e-04 0.0000000e+00 
9.3081682e-06 -4.8527358e-04 0.0000000e+00 
5.3546891e-06 -4.8697639e-04 0.0000000e+00 
6.6825077e-06 -4.8700714e-04 0.0000000e+00 
8.0123460e-06 -4.8703354e-04 0.0000000e+00 
9.3431065e-06 -4.8705564e-04 0.0000000e+00 
5.4373632e-06 -4.8873812e-04 0.0000000e+00 
6.7493406e-06 -4.8876811e-04 0.0000000e+00 
8.0632187e-06 -4.8879398e-04 0.0000000e+00 
9.3780459e-06 -4.8881577e-04 0.0000000e+00 
5.5176863e-06 -4.9047923e-04 0.0000000e+00 
6.8144400e-06 -4.9050846e-04 0.0000000e+00 
8.1131382e-06 -4.9053380e-04 0.0000000e+00 
9.4128297e-06 -4.9055521e-04 0.0000000e+00 
5.5956634e-06 -4.9220026e-04 0.0000000e+00 
6.8779496e-06 -4.9222903e-04 0.0000000e+00 
8.1621654e-06 -4.9225403e-04 0.0000000e+00 
9.4474313e-06 -4.9227534e-04 0.0000000e+00 
5.6713481e-06 -4.9390287e-04 0.0000000e+00 
6.9399009e-06 -4.9393090e-04 0.0000000e+00 
8.2103112e-06 -4.9395545e-04 0.0000000e+00 
9.4817780e-06 -4.9397642e-04 0.0000000e+00 
5.7449175e-06 -4.9558714e-04 0.0000000e+00 
7.0002911e-06 -4.9561473e-04 0.0000000e+00 
8.2575588e-06 -4.9563892e-04 0.0000000e+00 
9.5158614e-06 -4.9565978e-04 0.0000000e+00 
5.8163282e-06 -4.9725451e-04 0.0000000e+00 
7.0591537e-06 -4.9728145e-04 0.0000000e+00 
8.3038934e-06 -4.9730520e-04 0.0000000e+00 
9.5497210e-06 -4.9732571e-04 0.0000000e+00 
5.8855402e-06 -4.9890536e-04 0.0000000e+00 
7.1164832e-06 -4.9893185e-04 0.0000000e+00 
8.3493234e-06 -4.9895525e-04 0.0000000e+00 
9.5832417e-06 -4.9897564e-04 0.0000000e+00 
5.9525854e-06 -5.0054110e-04 0.0000000e+00 
7.1722436e-06 -5.0056687e-04 0.0000000e+00 