# vtk DataFile Version 4.0
vtk output
ASCII
DATASET UNSTRUCTURED_GRID
POINTS 604 float
5.5000000e+00 5.9700000e+00 0.0000000e+00 
5.5000000e+00 5.9900000e+00 0.0000000e+00 
5.5266667e+00 5.9700000e+00 0.0000000e+00 
5.5266667e+00 5.9900000e+00 0.0000000e+00 
5.5000000e+00 6.0100000e+00 0.0000000e+00 
5.5266667e+00 6.0100000e+00 0.0000000e+00 
5.5533333e+00 5.9700000e+00 0.0000000e+00 
5.5533333e+00 5.9900000e+00 0.0000000e+00 
5.5000000e+00 6.0300000e+00 0.0000000e+00 
5.5266667e+00 6.0300000e+00 0.0000000e+00 
5.5533333e+00 6.0100000e+00 0.0000000e+00 
5.5800000e+00 5.9700000e+00 0.0000000e+00 
5.5533333e+00 6.0300000e+00 0.0000000e+00 
5.5800000e+00 5.9900000e+00 0.0000000e+00 
5.5800000e+00 6.0100000e+00 0.0000000e+00 
5.5800000e+00 6.0300000e+00 0.0000000e+00 
5.6066667e+00 5.9700000e+00 0.0000000e+00 
5.6066667e+00 5.9900000e+00 0.0000000e+00 
5.6066667e+00 6.0100000e+00 0.0000000e+00 
5.6066667e+00 6.0300000e+00 0.0000000e+00 
5.6333333e+00 5.9700000e+00 0.0000000e+00 
5.6333333e+00 5.9900000e+00 0.0000000e+00 
5.6333333e+00 6.0100000e+00 0.0000000e+00 
5.6333333e+00 6.0300000e+00 0.0000000e+00 
5.6600000e+00 5.9700000e+00 0.0000000e+00 
5.6600000e+00 5.9900000e+00 0.0000000e+00 
5.6600000e+00 6.0100000e+00 0.0000000e+00 
5.6600000e+00 6.0300000e+00 0.0000000e+00 
5.6866667e+00 5.9700000e+00 0.0000000e+00 
5.6866667e+00 5.9900000e+00 0.0000000e+00 
5.6866667e+00 6.0100000e+00 0.0000000e+00 
5.6866667e+00 6.0300000e+00 0.0000000e+00 
5.7133333e+00 5.9700000e+00 0.0000000e+00 
5.7133333e+00 5.9900000e+00 0.0000000e+00 
5.7133333e+00 6.0100000e+00 0.0000000e+00 
5.7133333e+00 6.0300000e+00 0.0000000e+00 
5.7400000e+00 5.9700000e+00 0.0000000e+00 
5.7400000e+00 5.9900000e+00 0.0000000e+00 
5.7400000e+00 6.0100000e+00 0.0000000e+00 
5.7400000e+00 6.0300000e+00 0.0000000e+00 
5.7666667e+00 5.9700000e+00 0.0000000e+00 
5.7666667e+00 5.9900000e+00 0.0000000e+00 
5.7666667e+00 6.0100000e+00 0.0000000e+00 
5.7666667e+00 6.0300000e+00 0.0000000e+00 
5.7933333e+00 5.9700000e+00 0.0000000e+00 
5.7933333e+00 5.9900000e+00 0.0000000e+00 
5.7933333e+00 6.0100000e+00 0.0000000e+00 
5.7933333e+00 6.0300000e+00 0.0000000e+00 
5.8200000e+00 5.9700000e+00 0.0000000e+00 
5.8200000e+00 5.9900000e+00 0.0000000e+00 
5.8200000e+00 6.0100000e+00 0.0000000e+00 
5.8200000e+00 6.0300000e+00 0.0000000e+00 
5.8466667e+00 5.9700000e+00 0.0000000e+00 
5.8466667e+00 5.9900000e+00 0.0000000e+00 
5.8466667e+00 6.0100000e+00 0.0000000e+00 
5.8466667e+00 6.0300000e+00 0.0000000e+00 
5.8733333e+00 5.9700000e+00 0.0000000e+00 
5.8733333e+00 5.9900000e+00 0.0000000e+00 
5.8733333e+00 6.0100000e+00 0.0000000e+00 
5.8733333e+00 6.0300000e+00 0.0000000e+00 
5.9000000e+00 5.9700000e+00 0.0000000e+00 
5.9000000e+00 5.9900000e+00 0.0000000e+00 
5.9000000e+00 6.0100000e+00 0.0000000e+00 
5.9000000e+00 6.0300000e+00 0.0000000e+00 
5.9266667e+00 5.9700000e+00 0.0000000e+00 
5.9266667e+00 5.9900000e+00 0.0000000e+00 
5.9266667e+00 6.0100000e+00 0.0000000e+00 
5.9266667e+00 6.0300000e+00 0.0000000e+00 
5.9533333e+00 5.9700000e+00 0.0000000e+00 
5.9533333e+00 5.9900000e+00 0.0000000e+00 
5.9533333e+00 6.0100000e+00 0.0000000e+00 
5.9533333e+00 6.0300000e+00 0.0000000e+00 
5.9800000e+00 5.9700000e+00 0.0000000e+00 
5.9800000e+00 5.9900000e+00 0.0000000e+00 
5.9800000e+00 6.0100000e+00 0.0000000e+00 
5.9800000e+00 6.0300000e+00 0.0000000e+00 
6.0066667e+00 5.9700000e+00 0.0000000e+00 
6.0066667e+00 5.9900000e+00 0.0000000e+00 
6.0066667e+00 6.0100000e+00 0.0000000e+00 
6.0066667e+00 6.0300000e+00 0.0000000e+00 
6.0333333e+00 5.9700000e+00 0.0000000e+00 
6.0333333e+00 5.9900000e+00 0.0000000e+00 
6.0333333e+00 6.0100000e+00 0.0000000e+00 
6.0333333e+00 6.0300000e+00 0.0000000e+00 
6.0600000e+00 5.9700000e+00 0.0000000e+00 
6.0600000e+00 5.9900000e+00 0.0000000e+00 
6.0600000e+00 6.0100000e+00 0.0000000e+00 
6.0600000e+00 6.0300000e+00 0.0000000e+00 
6.0866667e+00 5.9700000e+00 0.0000000e+00 
6.0866667e+00 5.9900000e+00 0.0000000e+00 
6.0866667e+00 6.0100000e+00 0.0000000e+00 
6.0866667e+00 6.0300000e+00 0.0000000e+00 
6.1133333e+00 5.9700000e+00 0.0000000e+00 
6.1133333e+00 5.9900000e+00 0.0000000e+00 
6.1133333e+00 6.0100000e+00 0.0000000e+00 
6.1133333e+00 6.0300000e+00 0.0000000e+00 
6.1400000e+00 5.9700000e+00 0.0000000e+00 
6.1400000e+00 5.9900000e+00 0.0000000e+00 
6.1400000e+00 6.0100000e+00 0.0000000e+00 
6.1400000e+00 6.0300000e+00 0.0000000e+00 
6.1666667e+00 5.9700000e+00 0.0000000e+00 
6.1666667e+00 5.9900000e+00 0.0000000e+00 
6.1666667e+00 6.0100000e+00 0.0000000e+00 
6.1666667e+00 6.0300000e+00 0.0000000e+00 
6.1933333e+00 5.9700000e+00 0.0000000e+00 
6.1933333e+00 5.9900000e+00 0.0000000e+00 
6.1933333e+00 6.0100000e+00 0.0000000e+00 
6.1933333e+00 6.0300000e+00 0.0000000e+00 
6.2200000e+00 5.9700000e+00 0.0000000e+00 
6.2200000e+00 5.9900000e+00 0.0000000e+00 
6.2200000e+00 6.0100000e+00 0.0000000e+00 
6.2200000e+00 6.0300000e+00 0.0000000e+00 
6.2466667e+00 5.9700000e+00 0.0000000e+00 
6.2466667e+00 5.9900000e+00 0.0000000e+00 
6.2466667e+00 6.0100000e+00 0.0000000e+00 
6.2466667e+00 6.0300000e+00 0.0000000e+00 
6.2733333e+00 5.9700000e+00 0.0000000e+00 
6.2733333e+00 5.9900000e+00 0.0000000e+00 
6.2733333e+00 6.0100000e+00 0.0000000e+00 
6.2733333e+00 6.0300000e+00 0.0000000e+00 
6.3000000e+00 5.9700000e+00 0.0000000e+00 
6.3000000e+00 5.9900000e+00 0.0000000e+00 
6.3000000e+00 6.0100000e+00 0.0000000e+00 
6.3000000e+00 6.0300000e+00 0.0000000e+00 
6.3266667e+00 5.9700000e+00 0.0000000e+00 
6.3266667e+00 5.9900000e+00 0.0000000e+00 
6.3266667e+00 6.0100000e+00 0.0000000e+00 
6.3266667e+00 6.0300000e+00 0.0000000e+00 
6.3533333e+00 5.9700000e+00 0.0000000e+00 
6.3533333e+00 5.9900000e+00 0.0000000e+00 
6.3533333e+00 6.0100000e+00 0.0000000e+00 
6.3533333e+00 6.0300000e+00 0.0000000e+00 
6.3800000e+00 5.9700000e+00 0.0000000e+00 
6.3800000e+00 5.9900000e+00 0.0000000e+00 
6.3800000e+00 6.0100000e+00 0.0000000e+00 
6.3800000e+00 6.0300000e+00 0.0000000e+00 
6.4066667e+00 5.9700000e+00 0.0000000e+00 
6.4066667e+00 5.9900000e+00 0.0000000e+00 
6.4066667e+00 6.0100000e+00 0.0000000e+00 
6.4066667e+00 6.0300000e+00 0.0000000e+00 
6.4333333e+00 5.9700000e+00 0.0000000e+00 
6.4333333e+00 5.9900000e+00 0.0000000e+00 
6.4333333e+00 6.0100000e+00 0.0000000e+00 
6.4333333e+00 6.0300000e+00 0.0000000e+00 
6.4600000e+00 5.9700000e+00 0.0000000e+00 
6.4600000e+00 5.9900000e+00 0.0000000e+00 
6.4600000e+00 6.0100000e+00 0.0000000e+00 
6.4600000e+00 6.0300000e+00 0.0000000e+00 
6.4866667e+00 5.9700000e+00 0.0000000e+00 
6.4866667e+00 5.9900000e+00 0.0000000e+00 
6.4866667e+00 6.0100000e+00 0.0000000e+00 
6.4866667e+00 6.0300000e+00 0.0000000e+00 
6.5133333e+00 5.9700000e+00 0.0000000e+00 
6.5133333e+00 5.9900000e+00 0.0000000e+00 
6.5133333e+00 6.0100000e+00 0.0000000e+00 
6.5133333e+00 6.0300000e+00 0.0000000e+00 
6.5400000e+00 5.9700000e+00 0.0000000e+00 
6.5400000e+00 5.9900000e+00 0.0000000e+00 
6.5400000e+00 6.0100000e+00 0.0000000e+00 
6.5400000e+00 6.0300000e+00 0.0000000e+00 
6.5666667e+00 5.9700000e+00 0.0000000e+00 
6.5666667e+00 5.9900000e+00 0.0000000e+00 
6.5666667e+00 6.0100000e+00 0.0000000e+00 
6.5666667e+00 6.0300000e+00 0.0000000e+00 
6.5933333e+00 5.9700000e+00 0.0000000e+00 
6.5933333e+00 5.9900000e+00 0.0000000e+00 
6.5933333e+00 6.0100000e+00 0.0000000e+00 
6.5933333e+00 6.0300000e+00 0.0000000e+00 
6.6200000e+00 5.9700000e+00 0.0000000e+00 
6.6200000e+00 5.9900000e+00 0.0000000e+00 
6.6200000e+00 6.0100000e+00 0.0000000e+00 
6.6200000e+00 6.0300000e+00 0.0000000e+00 
6.6466667e+00 5.9700000e+00 0.0000000e+00 
6.6466667e+00 5.9900000e+00 0.0000000e+00 
6.6466667e+00 6.0100000e+00 0.0000000e+00 
6.6466667e+00 6.0300000e+00 0.0000000e+00 
6.6733333e+00 5.9700000e+00 0.0000000e+00 
6.6733333e+00 5.9900000e+00 0.0000000e+00 
6.6733333e+00 6.0100000e+00 0.0000000e+00 
6.6733333e+00 6.0300000e+00 0.0000000e+00 
6.7000000e+00 5.9700000e+00 0.0000000e+00 
6.7000000e+00 5.9900000e+00 0.0000000e+00 
6.7000000e+00 6.0100000e+00 0.0000000e+00 
6.7000000e+00 6.0300000e+00 0.0000000e+00 
6.7266667e+00 5.9700000e+00 0.0000000e+00 
6.7266667e+00 5.9900000e+00 0.0000000e+00 
6.7266667e+00 6.0100000e+00 0.0000000e+00 
6.7266667e+00 6.0300000e+00 0.0000000e+00 
6.7533333e+00 5.9700000e+00 0.0000000e+00 
6.7533333e+00 5.9900000e+00 0.0000000e+00 
6.7533333e+00 6.0100000e+00 0.0000000e+00 
6.7533333e+00 6.0300000e+00 0.0000000e+00 
6.7800000e+00 5.9700000e+00 0.0000000e+00 
6.7800000e+00 5.9900000e+00 0.0000000e+00 
6.7800000e+00 6.0100000e+00 0.0000000e+00 
6.7800000e+00 6.0300000e+00 0.0000000e+00 
6.8066667e+00 5.9700000e+00 0.0000000e+00 
6.8066667e+00 5.9900000e+00 0.0000000e+00 
6.8066667e+00 6.0100000e+00 0.0000000e+00 
6.8066667e+00 6.0300000e+00 0.0000000e+00 
6.8333333e+00 5.9700000e+00 0.0000000e+00 
6.8333333e+00 5.9900000e+00 0.0000000e+00 
6.8333333e+00 6.0100000e+00 0.0000000e+00 
6.8333333e+00 6.0300000e+00 0.0000000e+00 
6.8600000e+00 5.9700000e+00 0.0000000e+00 
6.8600000e+00 5.9900000e+00 0.0000000e+00 
6.8600000e+00 6.0100000e+00 0.0000000e+00 
6.8600000e+00 6.0300000e+00 0.0000000e+00 
6.8866667e+00 5.9700000e+00 0.0000000e+00 
6.8866667e+00 5.9900000e+00 0.0000000e+00 
6.8866667e+00 6.0100000e+00 0.0000000e+00 
6.8866667e+00 6.0300000e+00 0.0000000e+00 
6.9133333e+00 5.9700000e+00 0.0000000e+00 
6.9133333e+00 5.9900000e+00 0.0000000e+00 
6.9133333e+00 6.0100000e+00 0.0000000e+00 
6.9133333e+00 6.0300000e+00 0.0000000e+00 
6.9400000e+00 5.9700000e+00 0.0000000e+00 
6.9400000e+00 5.9900000e+00 0.0000000e+00 
6.9400000e+00 6.0100000e+00 0.0000000e+00 
6.9400000e+00 6.0300000e+00 0.0000000e+00 
6.9666667e+00 5.9700000e+00 0.0000000e+00 
6.9666667e+00 5.9900000e+00 0.0000000e+00 
6.9666667e+00 6.0100000e+00 0.0000000e+00 
6.9666667e+00 6.0300000e+00 0.0000000e+00 
6.9933333e+00 5.9700000e+00 0.0000000e+00 
6.9933333e+00 5.9900000e+00 0.0000000e+00 
6.9933333e+00 6.0100000e+00 0.0000000e+00 
6.9933333e+00 6.0300000e+00 0.0000000e+00 
7.0200000e+00 5.9700000e+00 0.0000000e+00 
7.0200000e+00 5.9900000e+00 0.0000000e+00 
[...]
POINT_DATA 604
FIELD FieldData 2
DISPLACEMENT 3 604  float
0.0000000e+00 0.0000000e+00 0.0000000e+00 
0.0000000e+00 0.0000000e+00 0.0000000e+00 
-1.6600142e-04 -9.6631958e-05 0.0000000e+00 
-5.3547069e-05 -6.2034760e-05 0.0000000e+00 
0.0000000e+00 0.0000000e+00 0.0000000e+00 
5.2126243e-05 -6.2430813e-05 0.0000000e+00 
-3.3806004e-04 -3.1434782e-04 0.0000000e+00 
-1.1436548e-04 -2.8646241e-04 0.0000000e+00 
0.0000000e+00 0.0000000e+00 0.0000000e+00 
1.6433384e-04 -9.7679295e-05 0.0000000e+00 
1.0988617e-04 -2.8787856e-04 0.0000000e+00 
-5.1167896e-04 -6.8680118e-04 0.0000000e+00 
3.3295328e-04 -3.1839134e-04 0.0000000e+00 
-1.7389843e-04 -6.5991454e-04 0.0000000e+00 
1.6301087e-04 -6.6290329e-04 0.0000000e+00 
4.9977737e-04 -6.9557697e-04 0.0000000e+00 
-6.8717890e-04 -1.2088457e-03 0.0000000e+00 
-2.3622874e-04 -1.1843532e-03 0.0000000e+00 
2.1381384e-04 -1.1895617e-03 0.0000000e+00 
6.6342270e-04 -1.2242956e-03 0.0000000e+00 
-8.6549625e-04 -1.8805107e-03 0.0000000e+00 
-3.0170354e-04 -1.8589723e-03 0.0000000e+00 
2.6098546e-04 -1.8670336e-03 0.0000000e+00 
8.2311051e-04 -1.9045212e-03 0.0000000e+00 
-1.0474023e-03 -2.7012186e-03 0.0000000e+00 
-3.7119487e-04 -2.6832711e-03 0.0000000e+00 
3.0373009e-04 -2.6948055e-03 0.0000000e+00 
9.7794528e-04 -2.7356545e-03 0.0000000e+00 
-1.2336770e-03 -3.6704061e-03 0.0000000e+00 
-4.4550616e-04 -3.6566699e-03 0.0000000e+00 
3.4120412e-04 -3.6722906e-03 0.0000000e+00 
1.1270622e-03 -3.7171069e-03 0.0000000e+00 
-1.4250881e-03 -4.7874662e-03 0.0000000e+00 
-5.2543554e-04 -4.7785538e-03 0.0000000e+00 
3.7258088e-04 -4.7988654e-03 0.0000000e+00 
1.2696049e-03 -4.8482462e-03 0.0000000e+00 
-1.6223921e-03 -6.0517537e-03 0.0000000e+00 
-6.1176893e-04 -6.0482687e-03 0.0000000e+00 
3.9704499e-04 -6.0738668e-03 0.0000000e+00 
1.4047292e-03 -6.1284002e-03 0.0000000e+00 
-1.8263331e-03 -7.4625856e-03 0.0000000e+00 
-7.0527990e-04 -7.4651218e-03 0.0000000e+00 
4.1379367e-04 -7.4965923e-03 0.0000000e+00 
1.5316024e-03 -7.5568567e-03 0.0000000e+00 
-2.0376420e-03 -9.0192404e-03 0.0000000e+00 
-8.0672884e-04 -9.0283815e-03 0.0000000e+00 
4.2203703e-04 -9.0663001e-03 0.0000000e+00 
1.6494066e-03 -9.1328637e-03 0.0000000e+00 
-2.2570358e-03 -1.0720958e-02 0.0000000e+00 
-9.1686222e-04 -1.0737277e-02 0.0000000e+00 
4.2099952e-04 -1.0782209e-02 0.0000000e+00 
1.7573355e-03 -1.0855629e-02 0.0000000e+00 
-2.4852173e-03 -1.2566942e-02 0.0000000e+00 
-1.0364119e-03 -1.2591000e-02 0.0000000e+00 
4.0992012e-04 -1.2643498e-02 0.0000000e+00 
1.8546002e-03 -1.2724322e-02 0.0000000e+00 
-2.7228741e-03 -1.4556354e-02 0.0000000e+00 
-1.1660944e-03 -1.4588701e-02 0.0000000e+00 
3.8805364e-04 -1.4649308e-02 0.0000000e+00 
1.9404262e-03 -1.4738069e-02 0.0000000e+00 
-2.9706779e-03 -1.6688324e-02 0.0000000e+00 
-1.3066102e-03 -1.6729496e-02 0.0000000e+00 
3.5467091e-04 -1.6798742e-02 0.0000000e+00 
2.0140567e-03 -1.6895963e-02 0.0000000e+00 
-3.2292843e-03 -1.8961939e-02 0.0000000e+00 
-1.4586434e-03 -1.9012462e-02 0.0000000e+00 
3.0905977e-04 -1.9090862e-02 0.0000000e+00 
2.0747510e-03 -1.9197053e-02 0.0000000e+00 
-3.4993317e-03 -2.1376254e-02 0.0000000e+00 
-1.6228603e-03 -2.1436638e-02 0.0000000e+00 
2.5052567e-04 -2.1524696e-02 0.0000000e+00 
2.1217862e-03 -2.1640352e-02 0.0000000e+00 
-3.7814407e-03 -2.3930284e-02 0.0000000e+00 
-1.7999097e-03 -2.4001025e-02 0.0000000e+00 
1.7839222e-04 -2.4099231e-02 0.0000000e+00 
2.1544591e-03 -2.4224836e-02 0.0000000e+00 
-4.0762141e-03 -2.6623009e-02 0.0000000e+00 
-1.9904215e-03 -2.6704592e-02 0.0000000e+00 
9.2002113e-05 -2.6813421e-02 0.0000000e+00 
2.1720844e-03 -2.6949441e-02 0.0000000e+00 
-4.3842358e-03 -2.9453375e-02 0.0000000e+00 
-2.1950068e-03 -2.9546266e-02 0.0000000e+00 
-9.2822168e-06 -2.9666179e-02 0.0000000e+00 
2.1739973e-03 -2.9813070e-02 0.0000000e+00 
-4.7060712e-03 -3.2420291e-02 0.0000000e+00 
-2.4142568e-03 -3.2524943e-02 0.0000000e+00 
-1.2607847e-04 -3.2656385e-02 0.0000000e+00 
2.1595560e-03 -3.2814586e-02 0.0000000e+00 
-5.0422654e-03 -3.5522634e-02 0.0000000e+00 
-2.6487428e-03 -3.5639484e-02 0.0000000e+00 
-2.5898369e-04 -3.5782886e-02 0.0000000e+00 
2.1281368e-03 -3.5952820e-02 0.0000000e+00 
-5.3933427e-03 -3.8759245e-02 0.0000000e+00 
-2.8990153e-03 -3.8888715e-02 0.0000000e+00 
-4.0857409e-04 -3.9044491e-02 0.0000000e+00 
2.0791376e-03 -3.9226566e-02 0.0000000e+00 
-5.7598066e-03 -4.2128935e-02 0.0000000e+00 
-3.1656035e-03 -4.2271429e-02 0.0000000e+00 
-5.7540483e-04 -4.2439977e-02 0.0000000e+00 
2.0119792e-03 -4.2634584e-02 0.0000000e+00 
-6.1421390e-03 -4.5630476e-02 0.0000000e+00 
-3.4490147e-03 -4.5786383e-02 0.0000000e+00 
-7.6000851e-04 -4.5968084e-02 0.0000000e+00 
1.9261007e-03 -4.6175598e-02 0.0000000e+00 
-6.5408001e-03 -4.9262611e-02 0.0000000e+00 
-3.7497342e-03 -4.9432302e-02 0.0000000e+00 
-9.6289542e-04 -4.9627521e-02 0.0000000e+00 
1.8209684e-03 -4.9848300e-02 0.0000000e+00 
-6.9562281e-03 -5.3024050e-02 0.0000000e+00 
-4.0682247e-03 -5.3207877e-02 0.0000000e+00 
-1.1845524e-03 -5.3416961e-02 0.0000000e+00 
1.6960711e-03 -5.3651347e-02 0.0000000e+00 
-7.3888390e-03 -5.6913469e-02 0.0000000e+00 
-4.4049257e-03 -5.7111769e-02 0.0000000e+00 
-1.4254427e-03 -5.7335048e-02 0.0000000e+00 
1.5509220e-03 -5.7583364e-02 0.0000000e+00 
-7.8390259e-03 -6.0929515e-02 0.0000000e+00 
-4.7602537e-03 -6.1142606e-02 0.0000000e+00 
-1.6860061e-03 -6.1380392e-02 0.0000000e+00 
1.3850582e-03 -6.1642943e-02 0.0000000e+00 
-8.3071590e-03 -6.5070805e-02 0.0000000e+00 
-5.1346016e-03 -6.5298987e-02 0.0000000e+00 
-1.9666579e-03 -6.5551573e-02 0.0000000e+00 
1.1980421e-03 -6.5828649e-02 0.0000000e+00 
-8.7935850e-03 -6.9335926e-02 0.0000000e+00 
-5.5283383e-03 -6.9579480e-02 0.0000000e+00 
-2.2677889e-03 -6.9847143e-02 0.0000000e+00 
9.8946038e-04 -7.0139013e-02 0.0000000e+00 
-9.2986277e-03 -7.3723435e-02 0.0000000e+00 
-5.9418086e-03 -7.3982625e-02 0.0000000e+00 
-2.5897654e-03 -7.4265621e-02 0.0000000e+00 
7.5892580e-04 -7.4572537e-02 0.0000000e+00 
-9.8225873e-03 -7.8231863e-02 0.0000000e+00 
-6.3753334e-03 -7.8506932e-02 0.0000000e+00 
-2.9329287e-03 -7.8805501e-02 0.0000000e+00 
5.0607693e-04 -7.9127698e-02 0.0000000e+00 
-1.0365740e-02 -8.2859714e-02 0.0000000e+00 
-6.8292089e-03 -8.3150889e-02 0.0000000e+00 
-3.2975948e-03 -8.3465251e-02 0.0000000e+00 
2.3057745e-04 -8.3802942e-02 0.0000000e+00 
-1.0928340e-02 -8.7605467e-02 0.0000000e+00 
-7.3037072e-03 -8.7912953e-02 0.0000000e+00 
-3.6840541e-03 -8.8243310e-02 0.0000000e+00 
-6.7883217e-05 -8.8596694e-02 0.0000000e+00 
-1.1510616e-02 -9.2467574e-02 0.0000000e+00 
-7.7990758e-03 -9.2791560e-02 0.0000000e+00 
-4.0925723e-03 -9.3138095e-02 0.0000000e+00 
-3.8958506e-04 -9.3507349e-02 0.0000000e+00 
-1.2112776e-02 -9.7444468e-02 0.0000000e+00 
-8.3155377e-03 -9.7785122e-02 0.0000000e+00 
-4.5233895e-03 -9.8148000e-02 0.0000000e+00 
-7.3478736e-04 -9.8533286e-02 0.0000000e+00 
-1.2734999e-02 -1.0253456e-01 0.0000000e+00 
-8.8532915e-03 -1.0289203e-01 0.0000000e+00 
-4.9767207e-03 -1.0327140e-01 0.0000000e+00 
-1.1037212e-03 -1.0367285e-01 0.0000000e+00 
-1.3377443e-02 -1.0773623e-01 0.0000000e+00 
-9.4125108e-03 -1.0811065e-01 0.0000000e+00 
-5.4527569e-03 -1.0850663e-01 0.0000000e+00 
-1.4965925e-03 -1.0892439e-01 0.0000000e+00 
-1.4040240e-02 -1.1304784e-01 0.0000000e+00 
-9.9933445e-03 -1.1343933e-01 0.0000000e+00 
-5.9516627e-03 -1.1385203e-01 0.0000000e+00 
-1.9135861e-03 -1.1428619e-01 0.0000000e+00 
-1.4723501e-02 -1.1846774e-01 0.0000000e+00 
-1.0595917e-02 -1.1887638e-01 0.0000000e+00 
-6.4735778e-03 -1.1930590e-01 0.0000000e+00 
-2.3548554e-03 -1.1975654e-01 0.0000000e+00 
-1.5427310e-02 -1.2399425e-01 0.0000000e+00 
-1.1220328e-02 -1.2442012e-01 0.0000000e+00 
-7.0186159e-03 -1.2486653e-01 0.0000000e+00 
-2.8205278e-03 -1.2533372e-01 0.0000000e+00 
-1.6151731e-02 -1.2962568e-01 0.0000000e+00 
-1.1866654e-02 -1.3006884e-01 0.0000000e+00 
-7.5868662e-03 -1.3053218e-01 0.0000000e+00 
-3.3107057e-03 -1.3101598e-01 0.0000000e+00 
-1.6896803e-02 -1.3536031e-01 0.0000000e+00 
-1.2534945e-02 -1.3582079e-01 0.0000000e+00 
-8.1783924e-03 -1.3630110e-01 0.0000000e+00 
-3.8254650e-03 -1.3680153e-01 0.0000000e+00 
-1.7662544e-02 -1.4119641e-01 0.0000000e+00 
-1.3225232e-02 -1.4167424e-01 0.0000000e+00 
-8.7932343e-03 -1.4217154e-01 0.0000000e+00 
-4.3648568e-03 -1.4268862e-01 0.0000000e+00 
-1.8448948e-02 -1.4713224e-01 0.0000000e+00 
-1.3937518e-02 -1.4762741e-01 0.0000000e+00 
-9.4314064e-03 -1.4814170e-01 0.0000000e+00 
-4.9289064e-03 -1.4867543e-01 0.0000000e+00 
-1.9255988e-02 -1.5316605e-01 0.0000000e+00 
-1.4671786e-02 -1.5367855e-01 0.0000000e+00 
-1.0092900e-02 -1.5420981e-01 0.0000000e+00 
-5.5176130e-03 -1.5476015e-01 0.0000000e+00 
-2.0083619e-02 -1.5929605e-01 0.0000000e+00 
-1.5427996e-02 -1.5982585e-01 0.0000000e+00 
-1.0777683e-02 -1.6037405e-01 0.0000000e+00 
-6.1309527e-03 -1.6094098e-01 0.0000000e+00 
-2.0931772e-02 -1.6552049e-01 0.0000000e+00 
-1.6206087e-02 -1.6606753e-01 0.0000000e+00 
-1.1485701e-02 -1.6663261e-01 0.0000000e+00 
-6.7688765e-03 -1.6721608e-01 0.0000000e+00 
-2.1800359e-02 -1.7183757e-01 0.0000000e+00 
-1.7005976e-02 -1.7240179e-01 0.0000000e+00 
-1.2216875e-02 -1.7298368e-01 0.0000000e+00 
-7.4313135e-03 -1.7358361e-01 0.0000000e+00 
-2.2689272e-02 -1.7824549e-01 0.0000000e+00 
-1.7827559e-02 -1.7882681e-01 0.0000000e+00 
-1.2971108e-02 -1.7942544e-01 0.0000000e+00 
-8.1181684e-03 -1.8004174e-01 0.0000000e+00 
-2.3598383e-02 -1.8474246e-01 0.0000000e+00 
-1.8670713e-02 -1.8534078e-01 0.0000000e+00 
-1.3748278e-02 -1.8595604e-01 0.0000000e+00 
-8.8293258e-03 -1.8658863e-01 0.0000000e+00 
-2.4527550e-02 -1.9132668e-01 0.0000000e+00 
-1.9535295e-02 -1.9194188e-01 0.0000000e+00 
-1.4548245e-02 -1.9257366e-01 0.0000000e+00 
-9.5646437e-03 -1.9322241e-01 0.0000000e+00 
-2.5476609e-02 -1.9799633e-01 0.0000000e+00 
-2.0421143e-02 -1.9862829e-01 0.0000000e+00 
-1.5370847e-02 -1.9927646e-01 0.0000000e+00 
-1.0323965e-02 -1.9994126e-01 0.0000000e+00 
-2.6445379e-02 -2.0474962e-01 0.0000000e+00 
-2.1328076e-02 -2.0539819e-01 0.0000000e+00 
-1.6215906e-02 -2.0606261e-01 0.0000000e+00 
-1.1107109e-02 -2.0674330e-01 0.0000000e+00 
-2.7433660e-02 -2.1158473e-01 0.0000000e+00 
-2.2255896e-02 -2.1224976e-01 0.0000000e+00 
-1.7083222e-02 -2.1293028e-01 0.0000000e+00 
-1.1913877e-02 -2.1362671e-01 0.0000000e+00 
-2.8441237e-02 -2.1849985e-01 0.0000000e+00 
-2.3204386e-02 -2.1918117e-01 0.0000000e+00 
-1.7972579e-02 -2.1987762e-01 0.0000000e+00 
-1.2744056e-02 -2.2058962e-01 0.0000000e+00 
-2.9467879e-02 -2.2549317e-01 0.0000000e+00 
-2.4173314e-02 -2.2619060e-01 0.0000000e+00 
-1.8883744e-02 -2.2690280e-01 0.0000000e+00 
-1.3597408e-02 -2.2763019e-01 0.0000000e+00 
-3.0513338e-02 -2.3256289e-01 0.0000000e+00 
-2.5162431e-02 -2.3327623e-01 0.0000000e+00 
-1.9816464e-02 -2.3400398e-01 0.0000000e+00 
-1.4473680e-02 -2.3474657e-01 0.0000000e+00 
-3.1577356e-02 -2.3970719e-01 0.0000000e+00 
-2.6171472e-02 -2.4043625e-01 0.0000000e+00 
-2.0770471e-02 -2.4117935e-01 0.0000000e+00 
-1.5372601e-02 -2.4193693e-01 0.0000000e+00 
-3.2659657e-02 -2.4692429e-01 0.0000000e+00 
-2.7200159e-02 -2.4766884e-01 0.0000000e+00 
-2.1745484e-02 -2.4842707e-01 0.0000000e+00 
-1.6293884e-02 -2.4919944e-01 0.0000000e+00 
-3.3759955e-02 -2.5421238e-01 0.0000000e+00 
-2.8248200e-02 -2.5497219e-01 0.0000000e+00 
-2.2741202e-02 -2.5574533e-01 0.0000000e+00 
-1.7237223e-02 -2.5653226e-01 0.0000000e+00 
-3.4877954e-02 -2.6156968e-01 0.0000000e+00 
-2.9315290e-02 -2.6234452e-01 0.0000000e+00 
-2.3757316e-02 -2.6313233e-01 0.0000000e+00 
-1.8202302e-02 -2.6393358e-01 0.0000000e+00 
-3.6013343e-02 -2.6899441e-01 0.0000000e+00 
-3.0401112e-02 -2.6978403e-01 0.0000000e+00 
-2.4793501e-02 -2.7058627e-01 0.0000000e+00 
-1.9188789e-02 -2.7140159e-01 0.0000000e+00 
-3.7165803e-02 -2.7648481e-01 0.0000000e+00 
-3.1505339e-02 -2.7728895e-01 0.0000000e+00 
-2.5849420e-02 -2.7810536e-01 0.0000000e+00 
-2.0196339e-02 -2.7893451e-01 0.0000000e+00 
-3.8335008e-02 -2.8403911e-01 0.0000000e+00 
-3.2627631e-02 -2.8485751e-01 0.0000000e+00 
-2.6924726e-02 -2.8568783e-01 0.0000000e+00 
-2.1224594e-02 -2.8653056e-01 0.0000000e+00 
-3.9520619e-02 -2.9165556e-01 0.0000000e+00 
-3.3767643e-02 -2.9248796e-01 0.0000000e+00 
-2.8019061e-02 -2.9333193e-01 0.0000000e+00 
-2.2273187e-02 -2.9418796e-01 0.0000000e+00 
-4.0722287e-02 -2.9933245e-01 0.0000000e+00 
-3.4925015e-02 -3.0017856e-01 0.0000000e+00 
-2.9132057e-02 -3.0103590e-01 0.0000000e+00 
-2.3341741e-02 -3.0190496e-01 0.0000000e+00 
-4.1939659e-02 -3.0706805e-01 0.0000000e+00 
-3.6099381e-02 -3.0792759e-01 0.0000000e+00 
-3.0263339e-02 -3.0879802e-01 0.0000000e+00 
-2.4429867e-02 -3.0967984e-01 0.0000000e+00 
-4.3172369e-02 -3.1486066e-01 0.0000000e+00 
-3.7290368e-02 -3.1573333e-01 0.0000000e+00 
-3.1412520e-02 -3.1661657e-01 0.0000000e+00 
-2.5537173e-02 -3.1751085e-01 0.0000000e+00 
-4.4420047e-02 -3.2270858e-01 0.0000000e+00 
-3.8497594e-02 -3.2359409e-01 0.0000000e+00 
-3.2579207e-02 -3.2448984e-01 0.0000000e+00 
-2.6663253e-02 -3.2539630e-01 0.0000000e+00 
-4.5682318e-02 -3.3061014e-01 0.0000000e+00 
-3.9720670e-02 -3.3150819e-01 0.0000000e+00 
-3.3763001e-02 -3.3241615e-01 0.0000000e+00 
-2.7807694e-02 -3.3333450e-01 0.0000000e+00 
-4.6958801e-02 -3.3856367e-01 0.0000000e+00 
-4.0959202e-02 -3.3947396e-01 0.0000000e+00 
-3.4963495e-02 -3.4039383e-01 0.0000000e+00 
-2.8970077e-02 -3.4132376e-01 0.0000000e+00 
-4.8249110e-02 -3.4656754e-01 0.0000000e+00 
-4.2212791e-02 -3.4748975e-01 0.0000000e+00 
-3.6180275e-02 -3.4842122e-01 0.0000000e+00 
-3.0149976e-02 -3.4936244e-01 0.0000000e+00 
-4.9552856e-02 -3.5462011e-01 0.0000000e+00 
-4.3481035e-02 -3.5555394e-01 0.0000000e+00 
-3.7412926e-02 -3.5649670e-01 0.0000000e+00 
-3.1346961e-02 -3.5744890e-01 0.0000000e+00 
-5.0869645e-02 -3.6271978e-01 0.0000000e+00 
-4.4763525e-02 -3.6366490e-01 0.0000000e+00 
-3.8661025e-02 -3.6461865e-01 0.0000000e+00 
-3.2560596e-02 -3.6558152e-01 0.0000000e+00 
-5.2199083e-02 -3.7086496e-01 0.0000000e+00 
-4.6059851e-02 -3.7182105e-01 0.0000000e+00 
-3.9924146e-02 -3.7278548e-01 0.0000000e+00 
-3.3790439e-02 -3.7375870e-01 0.0000000e+00 
-5.3540774e-02 -3.7905407e-01 0.0000000e+00 
-4.7369600e-02 -3.8002082e-01 0.0000000e+00 
-4.1201862e-02 -3.8099560e-01 0.0000000e+00 
-3.5036048e-02 -3.8197887e-01 0.0000000e+00 
-5.4894318e-02 -3.8728557e-01 0.0000000e+00 
-4.8692360e-02 -3.8826266e-01 0.0000000e+00 
-4.2493742e-02 -3.8924747e-01 0.0000000e+00 
-3.6296976e-02 -3.9024047e-01 0.0000000e+00 
-5.6259320e-02 -3.9555792e-01 0.0000000e+00 
-5.0027713e-02 -3.9654503e-01 0.0000000e+00 
-4.3799354e-02 -3.9753956e-01 0.0000000e+00 
-3.7572774e-02 -3.9854199e-01 0.0000000e+00 
-5.7635379e-02 -4.0386963e-01 0.0000000e+00 
-5.1375246e-02 -4.0486642e-01 0.0000000e+00 
-4.5118266e-02 -4.0587036e-01 0.0000000e+00 
-3.8862993e-02 -4.0688189e-01 0.0000000e+00 
-5.9022098e-02 -4.1221920e-01 0.0000000e+00 
-5.2734544e-02 -4.1322537e-01 0.0000000e+00 
-4.6450046e-02 -4.1423839e-01 0.0000000e+00 
-4.0167183e-02 -4.1525872e-01 0.0000000e+00 
-6.0419085e-02 -4.2060518e-01 0.0000000e+00 
-5.4105192e-02 -4.2162040e-01 0.0000000e+00 
-4.7794260e-02 -4.2264218e-01 0.0000000e+00 
-4.1484892e-02 -4.2367100e-01 0.0000000e+00 
-6.1825948e-02 -4.2902613e-01 0.0000000e+00 
-5.5486781e-02 -4.3005007e-01 0.0000000e+00 
-4.9150480e-02 -4.3108032e-01 0.0000000e+00 
-4.2815673e-02 -4.3211730e-01 0.0000000e+00 
-6.3242292e-02 -4.3748064e-01 0.0000000e+00 
-5.6878898e-02 -4.3851299e-01 0.0000000e+00 
-5.0518275e-02 -4.3955138e-01 0.0000000e+00 
-4.4159077e-02 -4.4059623e-01 0.0000000e+00 
-6.4667733e-02 -4.4596733e-01 0.0000000e+00 
-5.8281137e-02 -4.4700777e-01 0.0000000e+00 
-5.1897221e-02 -4.4805398e-01 0.0000000e+00 
-4.5514659e-02 -4.4910639e-01 0.0000000e+00 
-6.6101879e-02 -4.5448482e-01 0.0000000e+00 
-5.9693092e-02 -4.5553304e-01 0.0000000e+00 
-5.3286891e-02 -4.5658677e-01 0.0000000e+00 
-4.6881976e-02 -4.5764644e-01 0.0000000e+00 
-6.7544353e-02 -4.6303179e-01 0.0000000e+00 
-6.1114363e-02 -4.6408747e-01 0.0000000e+00 
-5.4686865e-02 -4.6514842e-01 0.0000000e+00 
-4.8260588e-02 -4.6621504e-01 0.0000000e+00 
-6.8994776e-02 -4.7160691e-01 0.0000000e+00 
-6.2544551e-02 -4.7266976e-01 0.0000000e+00 
-5.6096726e-02 -4.7373761e-01 0.0000000e+00 
-4.9650056e-02 -4.7481089e-01 0.0000000e+00 
-7.0452781e-02 -4.8020892e-01 0.0000000e+00 
-6.3983267e-02 -4.8127862e-01 0.0000000e+00 
-5.7516061e-02 -4.8235308e-01 0.0000000e+00 
-5.1049946e-02 -4.8343272e-01 0.0000000e+00 
-7.1918001e-02 -4.8883655e-01 0.0000000e+00 
-6.5430123e-02 -4.8991280e-01 0.0000000e+00 
-5.8944462e-02 -4.9099358e-01 0.0000000e+00 
-5.2459829e-02 -4.9207929e-01 0.0000000e+00 
-7.3390079e-02 -4.9748857e-01 0.0000000e+00 
-6.6884740e-02 -4.9857108e-01 0.0000000e+00 
-6.0381527e-02 -4.9965788e-01 0.0000000e+00 
-5.3879282e-02 -5.0074938e-01 0.0000000e+00 
-7.4868665e-02 -5.0616380e-01 0.0000000e+00 
-6.8346744e-02 -5.0725226e-01 0.0000000e+00 
-6.1826860e-02 -5.0834481e-01 0.0000000e+00 
-5.5307884e-02 -5.0944181e-01 0.0000000e+00 
-7.6353416e-02 -5.1486104e-01 0.0000000e+00 
-6.9815769e-02 -5.1595519e-01 0.0000000e+00 
-6.3280071e-02 -5.1705319e-01 0.0000000e+00 
-5.6745224e-02 -5.1815543e-01 0.0000000e+00 
-7.7843996e-02 -5.2357919e-01 0.0000000e+00 
-7.1291458e-02 -5.2467873e-01 0.0000000e+00 
-6.4740780e-02 -5.2578192e-01 0.0000000e+00 
-5.8190897e-02 -5.2688912e-01 0.0000000e+00 
-7.9340086e-02 -5.3231712e-01 0.0000000e+00 
-7.2773461e-02 -5.3342178e-01 0.0000000e+00 
-6.6208611e-02 -5.3452988e-01 0.0000000e+00 
-5.9644503e-02 -5.3564179e-01 0.0000000e+00 
-8.0841367e-02 -5.4107376e-01 0.0000000e+00 
-7.4261439e-02 -5.4218328e-01 0.0000000e+00 
-6.7683202e-02 -5.4329604e-01 0.0000000e+00 
-6.1105654e-02 -5.4441239e-01 0.0000000e+00 
-8.2347532e-02 -5.4984808e-01 0.0000000e+00 
-7.5755058e-02 -5.5096219e-01 0.0000000e+00 
-6.9164194e-02 -5.5207935e-01 0.0000000e+00 
-6.2573969e-02 -5.5319991e-01 0.0000000e+00 
-8.3858285e-02 -5.5863907e-01 0.0000000e+00 
-7.7253997e-02 -5.5975752e-01 0.0000000e+00 
-7.0651241e-02 -5.6087883e-01 0.0000000e+00 
-6.4049077e-02 -5.6200335e-01 0.0000000e+00 
-8.5373328e-02 -5.6744574e-01 0.0000000e+00 
-7.8757940e-02 -5.6856828e-01 0.0000000e+00 
-7.2144004e-02 -5.6969352e-01 0.0000000e+00 
-6.5530615e-02 -5.7082175e-01 0.0000000e+00 
-8.6892383e-02 -5.7626717e-01 0.0000000e+00 
-8.0266580e-02 -5.7739356e-01 0.0000000e+00 
-7.3642154e-02 -5.7852247e-01 0.0000000e+00 
-6.7018229e-02 -5.7965420e-01 0.0000000e+00 
-8.8415181e-02 -5.8510243e-01 0.0000000e+00 
-8.1779625e-02 -5.8623244e-01 0.0000000e+00 
-7.5145369e-02 -5.8736480e-01 0.0000000e+00 
-6.8511574e-02 -5.8849981e-01 0.0000000e+00 
-8.9941465e-02 -5.9395064e-01 0.0000000e+00 
-8.3296789e-02 -5.9508404e-01 0.0000000e+00 
-7.6653341e-02 -5.9621964e-01 0.0000000e+00 
-7.0010314e-02 -5.9735772e-01 0.0000000e+00 
-9.1470984e-02 -6.0281097e-01 0.0000000e+00 
-8.4817799e-02 -6.0394754e-01 0.0000000e+00 
-7.8165769e-02 -6.0508617e-01 0.0000000e+00 
-7.1514124e-02 -6.0622710e-01 0.0000000e+00 
-9.3003504e-02 -6.1168259e-01 0.0000000e+00 
-8.6342392e-02 -6.1282214e-01 0.0000000e+00 
-7.9682367e-02 -6.1396358e-01 0.0000000e+00 
-7.3022691e-02 -6.1510718e-01 0.0000000e+00 
-9.4538798e-02 -6.2056475e-01 0.0000000e+00 
-8.7870316e-02 -6.2170706e-01 0.0000000e+00 
-8.1202856e-02 -6.2285113e-01 0.0000000e+00 
-7.4535712e-02 -6.2399721e-01 0.0000000e+00 
-9.6076650e-02 -6.2945668e-01 0.0000000e+00 
-8.9401332e-02 -6.3060157e-01 0.0000000e+00 
-8.2726970e-02 -6.3174808e-01 0.0000000e+00 
-7.6052894e-02 -6.3289646e-01 0.0000000e+00 
-9.7616858e-02 -6.3835770e-01 0.0000000e+00 
-9.0935208e-02 -6.3950497e-01 0.0000000e+00 
-8.4254454e-02 -6.4065375e-01 0.0000000e+00 
-7.7573957e-02 -6.4180426e-01 0.0000000e+00 
-9.9159226e-02 -6.4726711e-01 0.0000000e+00 
-9.2471728e-02 -6.4841660e-01 0.0000000e+00 
-8.5785064e-02 -6.4956747e-01 0.0000000e+00 
-7.9098631e-02 -6.5071995e-01 0.0000000e+00 
-1.0070357e-01 -6.5618429e-01 0.0000000e+00 
-9.4010684e-02 -6.5733583e-01 0.0000000e+00 
-8.7318569e-02 -6.5848863e-01 0.0000000e+00 
-8.0626660e-02 -6.5964292e-01 0.0000000e+00 