# vtk DataFile Version 4.0
vtk output
ASCII
DATASET UNSTRUCTURED_GRID
POINTS 604 float
5.5000000e+00 5.9700000e+00 0.0000000e+00 
5.5000000e+00 5.9900000e+00 0.0000000e+00 
5.5266667e+00 5.9700000e+00 0.0000000e+00 
5.5266667e+00 5.9900000e+00 0.0000000e+00 
5.5000000e+00 6.0100000e+00 0.0000000e+00 
5.5266667e+00 6.0100000e+00 0.0000000e+00 
5.5533333e+00 5.9700000e+00 0.0000000e+00 
5.5533333e+00 5.9900000e+00 0.0000000e+00 
5.5000000e+00 6.0300000e+00 0.0000000e+00 
5.5266667e+00 6.0300000e+00 0.0000000e+00 
5.5533333e+00 6.0100000e+00 0.0000000e+00 
5.5800000e+00 5.9700000e+00 0.0000000e+00 
5.5533333e+00 6.0300000e+00 0.0000000e+00 
5.5800000e+00 5.9900000e+00 0.0000000e+00 
5.5800000e+00 6.0100000e+00 0.0000000e+00 
5.5800000e+00 6.0300000e+00 0.0000000e+00 
5.6066667e+00 5.9700000e+00 0.0000000e+00 
5.6066667e+00 5.9900000e+00 0.0000000e+00 
5.6066667e+00 6.0100000e+00 0.0000000e+00 
5.6066667e+00 6.0300000e+00 0.0000000e+00 
5.6333333e+00 5.9700000e+00 0.0000000e+00 
5.6333333e+00 5.9900000e+00 0.0000000e+00 
5.6333333e+00 6.0100000e+00 0.0000000e+00 
5.6333333e+00 6.0300000e+00 0.0000000e+00 
5.6600000e+00 5.9700000e+00 0.0000000e+00 
5.6600000e+00 5.9900000e+00 0.0000000e+00 
5.6600000e+00 6.0100000e+00 0.0000000e+00 
5.6600000e+00 6.0300000e+00 0.0000000e+00 
5.6866667e+00 5.9700000e+00 0.0000000e+00 
5.6866667e+00 5.9900000e+00 0.0000000e+00 
5.6866667e+00 6.0100000e+00 0.0000000e+00 
5.6866667e+00 6.0300000e+00 0.0000000e+00 
5.7133333e+00 5.9700000e+00 0.0000000e+00 
5.7133333e+00 5.9900000e+00 0.0000000e+00 
5.7133333e+00 6.0100000e+00 0.0000000e+00 
5.7133333e+00 6.0300000e+00 0.0000000e+00 
5.7400000e+00 5.9700000e+00 0.0000000e+00 
5.7400000e+00 5.9900000e+00 0.0000000e+00 
5.7400000e+00 6.0100000e+00 0.0000000e+00 
5.7400000e+00 6.0300000e+00 0.0000000e+00 
5.7666667e+00 5.9700000e+00 0.0000000e+00 
5.7666667e+00 5.9900000e+00 0.0000000e+00 
5.7666667e+00 6.0100000e+00 0.0000000e+00 
5.7666667e+00 6.0300000e+00 0.0000000e+00 
5.7933333e+00 5.9700000e+00 0.0000000e+00 
5.7933333e+00 5.9900000e+00 0.0000000e+00 
5.7933333e+00 6.0100000e+00 0.0000000e+00 
5.7933333e+00 6.0300000e+00 0.0000000e+00 
5.8200000e+00 5.9700000e+00 0.0000000e+00 
5.8200000e+00 5.9900000e+00 0.0000000e+00 
5.8200000e+00 6.0100000e+00 0.0000000e+00 
5.8200000e+00 6.0300000e+00 0.0000000e+00 
5.8466667e+00 5.9700000e+00 0.0000000e+00 
5.8466667e+00 5.9900000e+00 0.0000000e+00 
5.8466667e+00 6.0100000e+00 0.0000000e+00 
5.8466667e+00 6.0300000e+00 0.0000000e+00 
5.8733333e+00 5.9700000e+00 0.0000000e+00 
5.8733333e+00 5.9900000e+00 0.0000000e+00 
5.8733333e+00 6.0100000e+00 0.0000000e+00 
5.8733333e+00 6.0300000e+00 0.0000000e+00 
5.9000000e+00 5.9700000e+00 0.0000000e+00 
5.9000000e+00 5.9900000e+00 0.0000000e+00 
5.9000000e+00 6.0100000e+00 0.0000000e+00 
5.9000000e+00 6.0300000e+00 0.0000000e+00 
5.9266667e+00 5.9700000e+00 0.0000000e+00 
5.9266667e+00 5.9900000e+00 0.0000000e+00 
5.9266667e+00 6.0100000e+00 0.0000000e+00 
5.9266667e+00 6.0300000e+00 0.0000000e+00 
5.9533333e+00 5.9700000e+00 0.0000000e+00 
5.9533333e+00 5.9900000e+00 0.0000000e+00 
5.9533333e+00 6.0100000e+00 0.0000000e+00 
5.9533333e+00 6.0300000e+00 0.0000000e+00 
5.9800000e+00 5.9700000e+00 0.0000000e+00 
5.9800000e+00 5.9900000e+00 0.0000000e+00 
5.9800000e+00 6.0100000e+00 0.0000000e+00 
5.9800000e+00 6.0300000e+00 0.0000000e+00 
6.0066667e+00 5.9700000e+00 0.0000000e+00 
6.0066667e+00 5.9900000e+00 0.0000000e+00 
6.0066667e+00 6.0100000e+00 0.0000000e+00 
6.0066667e+00 6.0300000e+00 0.0000000e+00 
6.0333333e+00 5.9700000e+00 0.0000000e+00 
6.0333333e+00 5.9900000e+00 0.0000000e+00 
6.0333333e+00 6.0100000e+00 0.0000000e+00 
6.0333333e+00 6.0300000e+00 0.0000000e+00 
6.0600000e+00 5.9700000e+00 0.0000000e+00 
6.0600000e+00 5.9900000e+00 0.0000000e+00 
6.0600000e+00 6.0100000e+00 0.0000000e+00 
6.0600000e+00 6.0300000e+00 0.0000000e+00 
6.0866667e+00 5.9700000e+00 0.0000000e+00 
6.0866667e+00 5.9900000e+00 0.0000000e+00 
6.0866667e+00 6.0100000e+00 0.0000000e+00 
6.0866667e+00 6.0300000e+00 0.0000000e+00 
6.1133333e+00 5.9700000e+00 0.0000000e+00 
6.1133333e+00 5.9900000e+00 0.0000000e+00 
6.1133333e+00 6.0100000e+00 0.0000000e+00 
6.1133333e+00 6.0300000e+00 0.0000000e+00 
6.1400000e+00 5.9700000e+00 0.0000000e+00 
6.1400000e+00 5.9900000e+00 0.0000000e+00 
6.1400000e+00 6.0100000e+00 0.0000000e+00 
6.1400000e+00 6.0300000e+00 0.0000000e+00 
6.1666667e+00 5.9700000e+00 0.0000000e+00 
6.1666667e+00 5.9900000e+00 0.0000000e+00 
6.1666667e+00 6.0100000e+00 0.0000000e+00 
6.1666667e+00 6.0300000e+00 0.0000000e+00 
6.1933333e+00 5.9700000e+00 0.0000000e+00 
6.1933333e+00 5.9900000e+00 0.0000000e+00 
6.1933333e+00 6.0100000e+00 0.0000000e+00 
6.1933333e+00 6.0300000e+00 0.0000000e+00 
6.2200000e+00 5.9700000e+00 0.0000000e+00 
6.2200000e+00 5.9900000e+00 0.0000000e+00 
6.2200000e+00 6.0100000e+00 0.0000000e+00 
6.2200000e+00 6.0300000e+00 0.0000000e+00 
6.2466667e+00 5.9700000e+00 0.0000000e+00 
6.2466667e+00 5.9900000e+00 0.0000000e+00 
6.2466667e+00 6.0100000e+00 0.0000000e+00 
6.2466667e+00 6.0300000e+00 0.0000000e+00 
6.2733333e+00 5.9700000e+00 0.0000000e+00 
6.2733333e+00 5.9900000e+00 0.0000000e+00 
6.2733333e+00 6.0100000e+00 0.0000000e+00 
6.2733333e+00 6.0300000e+00 0.0000000e+00 
6.3000000e+00 5.9700000e+00 0.0000000e+00 
6.3000000e+00 5.9900000e+00 0.0000000e+00 
6.3000000e+00 6.0100000e+00 0.0000000e+00 
6.3000000e+00 6.0300000e+00 0.0000000e+00 
6.3266667e+00 5.9700000e+00 0.0000000e+00 
6.3266667e+00 5.9900000e+00 0.0000000e+00 
6.3266667e+00 6.0100000e+00 0.0000000e+00 
6.3266667e+00 6.0300000e+00 0.0000000e+00 
6.3533333e+00 5.9700000e+00 0.0000000e+00 
6.3533333e+00 5.9900000e+00 0.0000000e+00 
6.3533333e+00 6.0100000e+00 0.0000000e+00 
6.3533333e+00 6.0300000e+00 0.0000000e+00 
6.3800000e+00 5.9700000e+00 0.0000000e+00 
6.3800000e+00 5.9900000e+00 0.0000000e+00 
6.3800000e+00 6.0100000e+00 0.0000000e+00 
6.3800000e+00 6.0300000e+00 0.0000000e+00 
6.4066667e+00 5.9700000e+00 0.0000000e+00 
6.4066667e+00 5.9900000e+00 0.0000000e+00 
6.4066667e+00 6.0100000e+00 0.0000000e+00 
6.4066667e+00 6.0300000e+00 0.0000000e+00 
6.4333333e+00 5.9700000e+00 0.0000000e+00 
6.4333333e+00 5.9900000e+00 0.0000000e+00 
6.4333333e+00 6.0100000e+00 0.0000000e+00 
6.4333333e+00 6.0300000e+00 0.0000000e+00 
6.4600000e+00 5.9700000e+00 0.0000000e+00 
6.4600000e+00 5.9900000e+00 0.0000000e+00 
6.4600000e+00 6.0100000e+00 0.0000000e+00 
6.4600000e+00 6.0300000e+00 0.0000000e+00 
6.4866667e+00 5.9700000e+00 0.0000000e+00 
6.4866667e+00 5.9900000e+00 0.0000000e+00 
6.4866667e+00 6.0100000e+00 0.0000000e+00 
6.4866667e+00 6.0300000e+00 0.0000000e+00 
6.5133333e+00 5.9700000e+00 0.0000000e+00 
6.5133333e+00 5.9900000e+00 0.0000000e+00 
6.5133333e+00 6.0100000e+00 0.0000000e+00 
6.5133333e+00 6.0300000e+00 0.0000000e+00 
6.5400000e+00 5.9700000e+00 0.0000000e+00 
6.5400000e+00 5.9900000e+00 0.0000000e+00 
6.5400000e+00 6.0100000e+00 0.0000000e+00 
6.5400000e+00 6.0300000e+00 0.0000000e+00 
6.5666667e+00 5.9700000e+00 0.0000000e+00 
6.5666667e+00 5.9900000e+00 0.0000000e+00 
6.5666667e+00 6.0100000e+00 0.0000000e+00 
6.5666667e+00 6.0300000e+00 0.0000000e+00 
6.5933333e+00 5.9700000e+00 0.0000000e+00 
6.5933333e+00 5.9900000e+00 0.0000000e+00 
6.5933333e+00 6.0100000e+00 0.0000000e+00 
6.5933333e+00 6.0300000e+00 0.0000000e+00 
6.6200000e+00 5.9700000e+00 0.0000000e+00 
6.6200000e+00 5.9900000e+00 0.0000000e+00 
6.6200000e+00 6.0100000e+00 0.0000000e+00 
6.6200000e+00 6.0300000e+00 0.0000000e+00 
6.6466667e+00 5.9700000e+00 0.0000000e+00 
6.6466667e+00 5.9900000e+00 0.0000000e+00 
6.6466667e+00 6.0100000e+00 0.0000000e+00 
6.6466667e+00 6.0300000e+00 0.0000000e+00 
6.6733333e+00 5.9700000e+00 0.0000000e+00 
6.6733333e+00 5.9900000e+00 0.0000000e+00 
6.6733333e+00 6.0100000e+00 0.0000000e+00 
6.6733333e+00 6.0300000e+00 0.0000000e+00 
6.7000000e+00 5.9700000e+00 0.0000000e+00 
6.7000000e+00 5.9900000e+00 0.0000000e+00 
6.7000000e+00 6.0100000e+00 0.0000000e+00 
6.7000000e+00 6.0300000e+00 0.0000000e+00 
6.7266667e+00 5.9700000e+00 0.0000000e+00 
6.7266667e+00 5.9900000e+00 0.0000000e+00 
6.7266667e+00 6.0100000e+00 0.0000000e+00 
6.7266667e+00 6.0300000e+00 0.0000000e+00 
6.7533333e+00 5.9700000e+00 0.0000000e+00 
6.7533333e+00 5.9900000e+00 0.0000000e+00 
6.7533333e+00 6.0100000e+00 0.0000000e+00 
6.7533333e+00 6.0300000e+00 0.0000000e+00 
6.7800000e+00 5.9700000e+00 0.0000000e+00 
6.7800000e+00 5.9900000e+00 0.0000000e+00 
6.7800000e+00 6.0100000e+00 0.0000000e+00 
6.7800000e+00 6.0300000e+00 0.0000000e+00 
6.8066667e+00 5.9700000e+00 0.0000000e+00 
6.8066667e+00 5.9900000e+00 0.0000000e+00 
6.8066667e+00 6.0100000e+00 0.0000000e+00 
6.8066667e+00 6.0300000e+00 0.0000000e+00 
6.8333333e+00 5.9700000e+00 0.0000000e+00 
6.8333333e+00 5.9900000e+00 0.0000000e+00 
6.8333333e+00 6.0100000e+00 0.0000000e+00 
6.8333333e+00 6.0300000e+00 0.0000000e+00 
6.8600000e+00 5.9700000e+00 0.0000000e+00 
6.8600000e+00 5.9900000e+00 0.0000000e+00 
6.8600000e+00 6.0100000e+00 0.0000000e+00 
6.8600000e+00 6.0300000e+00 0.0000000e+00 
6.8866667e+00 5.9700000e+00 0.0000000e+00 
6.8866667e+00 5.9900000e+00 0.0000000e+00 
6.8866667e+00 6.0100000e+00 0.0000000e+00 
6.8866667e+00 6.0300000e+00 0.0000000e+00 
6.9133333e+00 5.9700000e+00 0.0000000e+00 
6.9133333e+00 5.9900000e+00 0.0000000e+00 
6.9133333e+00 6.0100000e+00 0.0000000e+00 
6.9133333e+00 6.0300000e+00 0.0000000e+00 
6.9400000e+00 5.9700000e+00 0.0000000e+00 
6.9400000e+00 5.9900000e+00 0.0000000e+00 
6.9400000e+00 6.0100000e+00 0.0000000e+00 
6.9400000e+00 6.0300000e+00 0.0000000e+00 
6.9666667e+00 5.9700000e+00 0.0000000e+00 
6.9666667e+00 5.9900000e+00 0.0000000e+00 
6.9666667e+00 6.0100000e+00 0.0000000e+00 
6.9666667e+00 6.0300000e+00 0.0000000e+00 
6.9933333e+00 5.9700000e+00 0.0000000e+00 
6.9933333e+00 5.9900000e+00 0.0000000e+00 
6.9933333e+00 6.0100000e+00 0.0000000e+00 
6.9933333e+00 6.0300000e+00 0.0000000e+00 
7.0200000e+00 5.9700000e+00 0.0000000e+00 
7.0200000e+00 5.9900000e+00 0.0000000e+00 
[...]
POINT_DATA 604
FIELD FieldData 2
DISPLACEMENT 3 604  float
0.0000000e+00 0.0000000e+00 0.0000000e+00 
0.0000000e+00 0.0000000e+00 0.0000000e+00 
-1.0073359e-04 -6.0588607e-05 0.0000000e+00 
-3.2148373e-05 -3.9625205e-05 0.0000000e+00 
0.0000000e+00 0.0000000e+00 0.0000000e+00 
3.1593539e-05 -3.9758131e-05 0.0000000e+00 
-2.0318263e-04 -1.9411062e-04 0.0000000e+00 
-6.8206576e-05 -1.7725750e-04 0.0000000e+00 
0.0000000e+00 0.0000000e+00 0.0000000e+00 
1.0007079e-04 -6.0936403e-05 0.0000000e+00 
6.6486453e-05 -1.7775330e-04 0.0000000e+00 
-3.0459195e-04 -4.1963667e-04 0.0000000e+00 
2.0122747e-04 -1.9553737e-04 0.0000000e+00 
-1.0253055e-04 -4.0326053e-04 0.0000000e+00 
9.8453244e-05 -4.0430881e-04 0.0000000e+00 
3.0015101e-04 -4.2273018e-04 0.0000000e+00 
-4.0495920e-04 -7.3271222e-04 0.0000000e+00 
-1.3738125e-04 -7.1746853e-04 0.0000000e+00 
1.2916357e-04 -7.1927914e-04 0.0000000e+00 
3.9627481e-04 -7.3810424e-04 0.0000000e+00 
-5.0464963e-04 -1.1320242e-03 0.0000000e+00 
-1.7274386e-04 -1.1180581e-03 0.0000000e+00 
1.5807900e-04 -1.1208272e-03 0.0000000e+00 
4.8941998e-04 -1.1402975e-03 0.0000000e+00 
-6.0392204e-04 -1.6159357e-03 0.0000000e+00 
-2.0890786e-04 -1.6034312e-03 0.0000000e+00 
1.8498627e-04 -1.6073412e-03 0.0000000e+00 
5.7934304e-04 -1.6276390e-03 0.0000000e+00 
-7.0303198e-04 -2.1828576e-03 0.0000000e+00 
-2.4611235e-04 -2.1719825e-03 0.0000000e+00 
2.0965217e-04 -2.1772051e-03 0.0000000e+00 
6.6582756e-04 -2.1985055e-03 0.0000000e+00 
-8.0221956e-04 -2.8312134e-03 0.0000000e+00 
-2.8458527e-04 -2.8221253e-03 0.0000000e+00 
2.3186171e-04 -2.8288214e-03 0.0000000e+00 
7.4867046e-04 -2.8512882e-03 0.0000000e+00 
-9.0171094e-04 -3.5594432e-03 0.0000000e+00 
-3.2454012e-04 -3.5522891e-03 0.0000000e+00 
2.5141373e-04 -3.5606091e-03 0.0000000e+00 
8.2768301e-04 -3.5843960e-03 0.0000000e+00 
-1.0017183e-03 -4.3660029e-03 0.0000000e+00 
-3.6617681e-04 -4.3609197e-03 0.0000000e+00 
2.6812085e-04 -4.3710041e-03 0.0000000e+00 
9.0269007e-04 -4.3962546e-03 0.0000000e+00 
-1.1024413e-03 -5.2493645e-03 0.0000000e+00 
-4.0968195e-04 -5.2464796e-03 0.0000000e+00 
2.8180881e-04 -5.2584590e-03 0.0000000e+00 
9.7352994e-04 -5.2853070e-03 0.0000000e+00 
-1.2040659e-03 -6.2080163e-03 0.0000000e+00 
-4.5522959e-04 -6.2074476e-03 0.0000000e+00 
2.9231617e-04 -6.2214433e-03 0.0000000e+00 
1.0400533e-03 -6.2500132e-03 0.0000000e+00 
-1.3067668e-03 -7.2404626e-03 0.0000000e+00 
-5.0298138e-04 -7.2423189e-03 0.0000000e+00 
2.9949372e-04 -7.2584432e-03 0.0000000e+00 
1.1021236e-03 -7.2888504e-03 0.0000000e+00 
-1.4107065e-03 -8.3452241e-03 0.0000000e+00 
-5.5308734e-04 -8.3496055e-03 0.0000000e+00 
3.0320419e-04 -8.3679618e-03 0.0000000e+00 
1.1596161e-03 -8.4003131e-03 0.0000000e+00 
-1.5160368e-03 -9.5208378e-03 0.0000000e+00 
-6.0568604e-04 -9.5278360e-03 0.0000000e+00 
3.0332167e-04 -9.5485196e-03 0.0000000e+00 
1.2124175e-03 -9.5829134e-03 0.0000000e+00 
-1.6228979e-03 -1.0765857e-02 0.0000000e+00 
-6.6090517e-04 -1.0775556e-02 0.0000000e+00 
2.9973125e-04 -1.0798654e-02 0.0000000e+00 
1.2604256e-03 -1.0835181e-02 0.0000000e+00 
-1.7314197e-03 -1.2078853e-02 0.0000000e+00 
-7.1886186e-04 -1.2091328e-02 0.0000000e+00 
2.9232859e-04 -1.2116920e-02 0.0000000e+00 
1.3035487e-03 -1.2155662e-02 0.0000000e+00 
-1.8417225e-03 -1.3458411e-02 0.0000000e+00 
-7.7966315e-04 -1.3473731e-02 0.0000000e+00 
2.8101949e-04 -1.3501889e-02 0.0000000e+00 
1.3417055e-03 -1.3542921e-02 0.0000000e+00 
-1.9539164e-03 -1.4903136e-02 0.0000000e+00 
-8.4340642e-04 -1.4921362e-02 0.0000000e+00 
2.6571954e-04 -1.4952150e-02 0.0000000e+00 
1.3748243e-03 -1.4995541e-02 0.0000000e+00 
-2.0681025e-03 -1.6411648e-02 0.0000000e+00 
-9.1017984e-04 -1.6432834e-02 0.0000000e+00 
2.4635369e-04 -1.6466310e-02 0.0000000e+00 
1.4028431e-03 -1.6512121e-02 0.0000000e+00 
-2.1843741e-03 -1.7982584e-02 0.0000000e+00 
-9.8006262e-04 -1.8006778e-02 0.0000000e+00 
2.2285587e-04 -1.8042994e-02 0.0000000e+00 
1.4257091e-03 -1.8091280e-02 0.0000000e+00 
-2.3028149e-03 -1.9614599e-02 0.0000000e+00 
-1.0531255e-03 -1.9641843e-02 0.0000000e+00 
1.9516858e-04 -1.9680843e-02 0.0000000e+00 
1.4433779e-03 -1.9731652e-02 0.0000000e+00 
-2.4235003e-03 -2.1306366e-02 0.0000000e+00 
-1.1294309e-03 -2.1336694e-02 0.0000000e+00 
1.6324247e-04 -2.1378518e-02 0.0000000e+00 
1.4558131e-03 -2.1431893e-02 0.0000000e+00 
-2.5464983e-03 -2.3056572e-02 0.0000000e+00 
-1.2090332e-03 -2.3090016e-02 0.0000000e+00 
1.2703598e-04 -2.3134697e-02 0.0000000e+00 
1.4629862e-03 -2.3190673e-02 0.0000000e+00 
-2.6718678e-03 -2.4863925e-02 0.0000000e+00 
-1.2919795e-03 -2.4900507e-02 0.0000000e+00 
8.6515119e-05 -2.4948073e-02 0.0000000e+00 
1.4648756e-03 -2.5006683e-02 0.0000000e+00 
-2.7996620e-03 -2.6727145e-02 0.0000000e+00 
-1.3783094e-03 -2.6766886e-02 0.0000000e+00 
4.1653038e-05 -2.6817359e-02 0.0000000e+00 
1.4614676e-03 -2.6878627e-02 0.0000000e+00 
-2.9299271e-03 -2.8644973e-02 0.0000000e+00 
-1.4680559e-03 -2.8687886e-02 0.0000000e+00 
-7.5701690e-06 -2.8741284e-02 0.0000000e+00 
1.4527553e-03 -2.8805232e-02 0.0000000e+00 
-3.0627028e-03 -3.0616166e-02 0.0000000e+00 
-1.5612456e-03 -3.0662260e-02 0.0000000e+00 
-6.1167950e-05 -3.0718595e-02 0.0000000e+00 
1.4387382e-03 -3.0785239e-02 0.0000000e+00 
-3.1980225e-03 -3.2639496e-02 0.0000000e+00 
-1.6578989e-03 -3.2688777e-02 0.0000000e+00 
-1.1914752e-04 -3.2748058e-02 0.0000000e+00 
1.4194222e-03 -3.2817409e-02 0.0000000e+00 
-3.3359141e-03 -3.4713756e-02 0.0000000e+00 
-1.7580301e-03 -3.4766222e-02 0.0000000e+00 
-1.8151023e-04 -3.4828453e-02 0.0000000e+00 
1.3948190e-03 -3.4900519e-02 0.0000000e+00 
-3.4763992e-03 -3.6837752e-02 0.0000000e+00 
-1.8616481e-03 -3.6893401e-02 0.0000000e+00 
-2.4825186e-04 -3.6958581e-02 0.0000000e+00 
1.3649459e-03 -3.7033365e-02 0.0000000e+00 
-3.6194946e-03 -3.9010310e-02 0.0000000e+00 
-1.9687564e-03 -3.9069134e-02 0.0000000e+00 
-3.1936287e-04 -3.9137259e-02 0.0000000e+00 
1.3298252e-03 -3.9214760e-02 0.0000000e+00 
-3.7652120e-03 -4.1230272e-02 0.0000000e+00 
-2.0793535e-03 -4.1292260e-02 0.0000000e+00 
-3.9482872e-04 -4.1363323e-02 0.0000000e+00 
1.2894847e-03 -4.1443536e-02 0.0000000e+00 
-3.9135581e-03 -4.3496497e-02 0.0000000e+00 
-2.1934333e-03 -4.3561635e-02 0.0000000e+00 
-4.7463013e-04 -4.3635624e-02 0.0000000e+00 
1.2439566e-03 -4.3718542e-02 0.0000000e+00 
-4.0645353e-03 -4.5807862e-02 0.0000000e+00 
-2.3109853e-03 -4.5876131e-02 0.0000000e+00 
-5.5874323e-04 -4.5953032e-02 0.0000000e+00 
1.1932778e-03 -4.6038644e-02 0.0000000e+00 
-4.2181434e-03 -4.8163261e-02 0.0000000e+00 
-2.4319946e-03 -4.8234640e-02 0.0000000e+00 
-6.4714005e-04 -4.8314435e-02 0.0000000e+00 
1.1374900e-03 -4.8402727e-02 0.0000000e+00 
-4.3743768e-03 -5.0561605e-02 0.0000000e+00 
-2.5564427e-03 -5.0636070e-02 0.0000000e+00 
-7.3978869e-04 -5.0718739e-02 0.0000000e+00 
1.0766381e-03 -5.0809694e-02 0.0000000e+00 
-4.5332257e-03 -5.3001823e-02 0.0000000e+00 
-2.6843072e-03 -5.3079348e-02 0.0000000e+00 
-8.3665363e-04 -5.3164868e-02 0.0000000e+00 
1.0107706e-03 -5.3258466e-02 0.0000000e+00 
-4.6946777e-03 -5.5482860e-02 0.0000000e+00 
-2.8155617e-03 -5.5563416e-02 0.0000000e+00 
-9.3769599e-04 -5.5651762e-02 0.0000000e+00 
9.3993936e-04 -5.5747981e-02 0.0000000e+00 
-4.8587144e-03 -5.8003681e-02 0.0000000e+00 
-2.9501769e-03 -5.8087236e-02 0.0000000e+00 
-1.0428736e-03 -5.8178380e-02 0.0000000e+00 
8.6419864e-04 -5.8277195e-02 0.0000000e+00 
-5.0253166e-03 -6.0563262e-02 0.0000000e+00 
-3.0881201e-03 -6.0649783e-02 0.0000000e+00 
-1.1521411e-03 -6.0743694e-02 0.0000000e+00 
7.8360668e-04 -6.0845079e-02 0.0000000e+00 
-5.1944620e-03 -6.3160600e-02 0.0000000e+00 
-3.2293561e-03 -6.3250052e-02 0.0000000e+00 
-1.2654504e-03 -6.3346698e-02 0.0000000e+00 
6.9822434e-04 -6.3450623e-02 0.0000000e+00 
-5.3661258e-03 -6.5794708e-02 0.0000000e+00 
-3.3738470e-03 -6.5887053e-02 0.0000000e+00 
-1.3827508e-03 -6.5986400e-02 0.0000000e+00 
6.0811527e-04 -6.6092835e-02 0.0000000e+00 
-5.5402803e-03 -6.8464615e-02 0.0000000e+00 
-3.5215525e-03 -6.8559814e-02 0.0000000e+00 
-1.5039892e-03 -6.8661827e-02 0.0000000e+00 
5.1334526e-04 -6.8770738e-02 0.0000000e+00 
-5.7168960e-03 -7.1169369e-02 0.0000000e+00 
-3.6724300e-03 -7.1267380e-02 0.0000000e+00 
-1.6291102e-03 -7.1372020e-02 0.0000000e+00 
4.1398246e-04 -7.1483375e-02 0.0000000e+00 
-5.8959409e-03 -7.3908031e-02 0.0000000e+00 
-3.8264351e-03 -7.4008813e-02 0.0000000e+00 
-1.7580567e-03 -7.4116042e-02 0.0000000e+00 
3.1009680e-04 -7.4229805e-02 0.0000000e+00 
-6.0773812e-03 -7.6679682e-02 0.0000000e+00 
-3.9835211e-03 -7.6783191e-02 0.0000000e+00 
-1.8907694e-03 -7.6892970e-02 0.0000000e+00 
2.0175993e-04 -7.7009103e-02 0.0000000e+00 
-6.2611816e-03 -7.9483419e-02 0.0000000e+00 
-4.1436400e-03 -7.9589611e-02 0.0000000e+00 
-2.0271876e-03 -7.9701897e-02 0.0000000e+00 
8.9045289e-05 -7.9820362e-02 0.0000000e+00 
-6.4473047e-03 -8.2318356e-02 0.0000000e+00 
-4.3067420e-03 -8.2427183e-02 0.0000000e+00 
-2.1672490e-03 -8.2541935e-02 0.0000000e+00 
-2.7972452e-05 -8.2662693e-02 0.0000000e+00 
-6.6357121e-03 -8.5183620e-02 0.0000000e+00 
-4.4727761e-03 -8.5295038e-02 0.0000000e+00 
-2.3108901e-03 -8.5412211e-02 0.0000000e+00 
-1.4921717e-04 -8.5535223e-02 0.0000000e+00 
-6.8263639e-03 -8.8078360e-02 0.0000000e+00 
-4.6416901e-03 -8.8192320e-02 0.0000000e+00 
-2.4580462e-03 -8.8311870e-02 0.0000000e+00 
-2.7461181e-04 -8.8437095e-02 0.0000000e+00 
-7.0192190e-03 -9.1001737e-02 0.0000000e+00 
-4.8134307e-03 -9.1118191e-02 0.0000000e+00 
-2.6086515e-03 -9.1240074e-02 0.0000000e+00 
-4.0407820e-04 -9.1367469e-02 0.0000000e+00 
-7.2142376e-03 -9.3952932e-02 0.0000000e+00 
-4.9879439e-03 -9.4071831e-02 0.0000000e+00 
-2.7626392e-03 -9.4196000e-02 0.0000000e+00 
-5.3753638e-04 -9.4325523e-02 0.0000000e+00 
-7.4113768e-03 -9.6931139e-02 0.0000000e+00 
-5.1651751e-03 -9.7052434e-02 0.0000000e+00 
-2.9199421e-03 -9.7178845e-02 0.0000000e+00 
-6.7490688e-04 -9.7310453e-02 0.0000000e+00 
-7.6105932e-03 -9.9935572e-02 0.0000000e+00 
-5.3450686e-03 -1.0005921e-01 0.0000000e+00 
-3.0804926e-03 -1.0018782e-01 0.0000000e+00 
-8.1610993e-04 -1.0032147e-01 0.0000000e+00 
-7.8118431e-03 -1.0296546e-01 0.0000000e+00 
-5.5275680e-03 -1.0309140e-01 0.0000000e+00 
-3.2442224e-03 -1.0322215e-01 0.0000000e+00 
-9.6106519e-04 -1.0335780e-01 0.0000000e+00 
-8.0150792e-03 -1.0602005e-01 0.0000000e+00 
-5.7126166e-03 -1.0614823e-01 0.0000000e+00 
-3.4110631e-03 -1.0628108e-01 0.0000000e+00 
-1.1096934e-03 -1.0641869e-01 0.0000000e+00 
-8.2202568e-03 -1.0909859e-01 0.0000000e+00 
-5.9001568e-03 -1.0922897e-01 0.0000000e+00 
-3.5809457e-03 -1.0936387e-01 0.0000000e+00 
-1.2619137e-03 -1.0950339e-01 0.0000000e+00 
-8.4273303e-03 -1.1220036e-01 0.0000000e+00 
-6.0901314e-03 -1.1233289e-01 0.0000000e+00 
-3.7538012e-03 -1.1246980e-01 0.0000000e+00 
-1.4176452e-03 -1.1261118e-01 0.0000000e+00 
-8.6362541e-03 -1.1532466e-01 0.0000000e+00 
-6.2824829e-03 -1.1545928e-01 0.0000000e+00 
-3.9295603e-03 -1.1559815e-01 0.0000000e+00 
-1.5768071e-03 -1.1574135e-01 0.0000000e+00 
-8.8469822e-03 -1.1847078e-01 0.0000000e+00 
-6.4771538e-03 -1.1860744e-01 0.0000000e+00 
-4.1081542e-03 -1.1874823e-01 0.0000000e+00 
-1.7393189e-03 -1.1889320e-01 0.0000000e+00 
-9.0594685e-03 -1.2163805e-01 0.0000000e+00 
-6.6740867e-03 -1.2177671e-01 0.0000000e+00 
-4.2895138e-03 -1.2191936e-01 0.0000000e+00 
-1.9051003e-03 -1.2206606e-01 0.0000000e+00 
-9.2736669e-03 -1.2482581e-01 0.0000000e+00 
-6.8732242e-03 -1.2496641e-01 0.0000000e+00 
-4.4735707e-03 -1.2511087e-01 0.0000000e+00 
-2.0740715e-03 -1.2525927e-01 0.0000000e+00 
-9.4895315e-03 -1.2803340e-01 0.0000000e+00 
-7.0745092e-03 -1.2817589e-01 0.0000000e+00 
-4.6602565e-03 -1.2832212e-01 0.0000000e+00 
-2.2461530e-03 -1.2847216e-01 0.0000000e+00 
-9.7070161e-03 -1.3126018e-01 0.0000000e+00 
-7.2778850e-03 -1.3140452e-01 0.0000000e+00 
-4.8495031e-03 -1.3155248e-01 0.0000000e+00 
-2.4212659e-03 -1.3170412e-01 0.0000000e+00 
-9.9260777e-03 -1.3450555e-01 0.0000000e+00 
-7.4832954e-03 -1.3465169e-01 0.0000000e+00 
-5.0412431e-03 -1.3480132e-01 0.0000000e+00 
-2.5993305e-03 -1.3495452e-01 0.0000000e+00 
-1.0146671e-02 -1.3776890e-01 0.0000000e+00 
-7.6906847e-03 -1.3791678e-01 0.0000000e+00 
-5.2354096e-03 -1.3806804e-01 0.0000000e+00 
-2.7802692e-03 -1.3822275e-01 0.0000000e+00 
-1.0368751e-02 -1.4104963e-01 0.0000000e+00 
-7.8999974e-03 -1.4119921e-01 0.0000000e+00 
-5.4319365e-03 -1.4135205e-01 0.0000000e+00 
-2.9640053e-03 -1.4150824e-01 0.0000000e+00 
-1.0592273e-02 -1.4434716e-01 0.0000000e+00 
-8.1111784e-03 -1.4449840e-01 0.0000000e+00 
-5.6307585e-03 -1.4465278e-01 0.0000000e+00 
-3.1504629e-03 -1.4481040e-01 0.0000000e+00 
-1.0817191e-02 -1.4766095e-01 0.0000000e+00 
-8.3241730e-03 -1.4781378e-01 0.0000000e+00 
-5.8318108e-03 -1.4796967e-01 0.0000000e+00 
-3.3395681e-03 -1.4812867e-01 0.0000000e+00 
-1.1043462e-02 -1.5099043e-01 0.0000000e+00 
-8.5389268e-03 -1.5114482e-01 0.0000000e+00 
-6.0350294e-03 -1.5130216e-01 0.0000000e+00 
-3.5312465e-03 -1.5146251e-01 0.0000000e+00 
-1.1271043e-02 -1.5433507e-01 0.0000000e+00 
-8.7553867e-03 -1.5449098e-01 0.0000000e+00 
-6.2403508e-03 -1.5464972e-01 0.0000000e+00 
-3.7254247e-03 -1.5481138e-01 0.0000000e+00 
-1.1499890e-02 -1.5769435e-01 0.0000000e+00 
-8.9734999e-03 -1.5785172e-01 0.0000000e+00 
-6.4477124e-03 -1.5801183e-01 0.0000000e+00 
-3.9220299e-03 -1.5817475e-01 0.0000000e+00 
-1.1729962e-02 -1.6106776e-01 0.0000000e+00 
-9.1932147e-03 -1.6122655e-01 0.0000000e+00 
-6.6570526e-03 -1.6138799e-01 0.0000000e+00 
-4.1209908e-03 -1.6155213e-01 0.0000000e+00 
-1.1961217e-02 -1.6445480e-01 0.0000000e+00 
-9.4144800e-03 -1.6461497e-01 0.0000000e+00 
-6.8683104e-03 -1.6477768e-01 0.0000000e+00 
-4.3222368e-03 -1.6494301e-01 0.0000000e+00 
-1.2193616e-02 -1.6785498e-01 0.0000000e+00 
-9.6372454e-03 -1.6801648e-01 0.0000000e+00 
-7.0814263e-03 -1.6818044e-01 0.0000000e+00 
-4.5256985e-03 -1.6834692e-01 0.0000000e+00 
-1.2427116e-02 -1.7126785e-01 0.0000000e+00 
-9.8614616e-03 -1.7143063e-01 0.0000000e+00 
-7.2963414e-03 -1.7159579e-01 0.0000000e+00 
-4.7313080e-03 -1.7176338e-01 0.0000000e+00 
-1.2661680e-02 -1.7469292e-01 0.0000000e+00 
-1.0087080e-02 -1.7485696e-01 0.0000000e+00 
-7.5129978e-03 -1.7502328e-01 0.0000000e+00 
-4.9389982e-03 -1.7519194e-01 0.0000000e+00 
-1.2897268e-02 -1.7812977e-01 0.0000000e+00 
-1.0314052e-02 -1.7829501e-01 0.0000000e+00 
-7.7313387e-03 -1.7846245e-01 0.0000000e+00 
-5.1487034e-03 -1.7863215e-01 0.0000000e+00 
-1.3133842e-02 -1.8157794e-01 0.0000000e+00 
-1.0542332e-02 -1.8174436e-01 0.0000000e+00 
-7.9513083e-03 -1.8191288e-01 0.0000000e+00 
-5.3603589e-03 -1.8208358e-01 0.0000000e+00 
-1.3371364e-02 -1.8503703e-01 0.0000000e+00 
-1.0771873e-02 -1.8520457e-01 0.0000000e+00 
-8.1728520e-03 -1.8537414e-01 0.0000000e+00 
-5.5739012e-03 -1.8554580e-01 0.0000000e+00 
-1.3609799e-02 -1.8850662e-01 0.0000000e+00 
-1.1002630e-02 -1.8867524e-01 0.0000000e+00 
-8.3959157e-03 -1.8884583e-01 0.0000000e+00 
-5.7892681e-03 -1.8901842e-01 0.0000000e+00 
-1.3849112e-02 -1.9198630e-01 0.0000000e+00 
-1.1234559e-02 -1.9215598e-01 0.0000000e+00 
-8.6204469e-03 -1.9232753e-01 0.0000000e+00 
-6.0063971e-03 -1.9250102e-01 0.0000000e+00 
-1.4089269e-02 -1.9547570e-01 0.0000000e+00 
-1.1467618e-02 -1.9564638e-01 0.0000000e+00 
-8.8463940e-03 -1.9581888e-01 0.0000000e+00 
-6.2252285e-03 -1.9599323e-01 0.0000000e+00 
-1.4330235e-02 -1.9897442e-01 0.0000000e+00 
-1.1701765e-02 -1.9914608e-01 0.0000000e+00 
-9.0737069e-03 -1.9931948e-01 0.0000000e+00 
-6.4457041e-03 -1.9949467e-01 0.0000000e+00 
-1.4571977e-02 -2.0248211e-01 0.0000000e+00 
-1.1936957e-02 -2.0265472e-01 0.0000000e+00 
-9.3023365e-03 -2.0282899e-01 0.0000000e+00 
-6.6677666e-03 -2.0300497e-01 0.0000000e+00 
-1.4814461e-02 -2.0599841e-01 0.0000000e+00 
-1.2173155e-02 -2.0617192e-01 0.0000000e+00 
-9.5322349e-03 -2.0634703e-01 0.0000000e+00 
-6.8913619e-03 -2.0652378e-01 0.0000000e+00 
-1.5057655e-02 -2.0952297e-01 0.0000000e+00 
-1.2410319e-02 -2.0969735e-01 0.0000000e+00 
-9.7633548e-03 -2.0987327e-01 0.0000000e+00 
-7.1164349e-03 -2.1005076e-01 0.0000000e+00 
-1.5301527e-02 -2.1305546e-01 0.0000000e+00 
-1.2648409e-02 -2.1323068e-01 0.0000000e+00 
-9.9956504e-03 -2.1340736e-01 0.0000000e+00 
-7.3429322e-03 -2.1358557e-01 0.0000000e+00 
-1.5546048e-02 -2.1659554e-01 0.0000000e+00 
-1.2887389e-02 -2.1677156e-01 0.0000000e+00 
-1.0229076e-02 -2.1694900e-01 0.0000000e+00 
-7.5708013e-03 -2.1712788e-01 0.0000000e+00 
-1.5791189e-02 -2.2014290e-01 0.0000000e+00 
-1.3127222e-02 -2.2031970e-01 0.0000000e+00 
-1.0463589e-02 -2.2049785e-01 0.0000000e+00 
-7.7999910e-03 -2.2067738e-01 0.0000000e+00 
-1.6036919e-02 -2.2369723e-01 0.0000000e+00 
-1.3367871e-02 -2.2387477e-01 0.0000000e+00 
-1.0699146e-02 -2.2405361e-01 0.0000000e+00 
-8.0304517e-03 -2.2423377e-01 0.0000000e+00 
-1.6283212e-02 -2.2725823e-01 0.0000000e+00 
-1.3609303e-02 -2.2743649e-01 0.0000000e+00 
-1.0935705e-02 -2.2761598e-01 0.0000000e+00 
-8.2621348e-03 -2.2779674e-01 0.0000000e+00 
-1.6530039e-02 -2.3082562e-01 0.0000000e+00 
-1.3851483e-02 -2.3100456e-01 0.0000000e+00 
-1.1173225e-02 -2.3118468e-01 0.0000000e+00 
-8.4949930e-03 -2.3136601e-01 0.0000000e+00 
-1.6777375e-02 -2.3439911e-01 0.0000000e+00 
-1.4094378e-02 -2.3457870e-01 0.0000000e+00 
-1.1411667e-02 -2.3475942e-01 0.0000000e+00 
-8.7289802e-03 -2.3494131e-01 0.0000000e+00 
-1.7025196e-02 -2.3797843e-01 0.0000000e+00 
-1.4337956e-02 -2.3815865e-01 0.0000000e+00 
-1.1650993e-02 -2.3833995e-01 0.0000000e+00 
-8.9640497e-03 -2.3852235e-01 0.0000000e+00 
-1.7273477e-02 -2.4156331e-01 0.0000000e+00 
-1.4582188e-02 -2.4174414e-01 0.0000000e+00 
-1.1891164e-02 -2.4192598e-01 0.0000000e+00 
-9.2001580e-03 -2.4210889e-01 0.0000000e+00 
-1.7522195e-02 -2.4515351e-01 0.0000000e+00 
-1.4827042e-02 -2.4533491e-01 0.0000000e+00 
-1.2132144e-02 -2.4551728e-01 0.0000000e+00 
-9.4372626e-03 -2.4570067e-01 0.0000000e+00 
-1.7771325e-02 -2.4874878e-01 0.0000000e+00 
-1.5072489e-02 -2.4893073e-01 0.0000000e+00 
-1.2373899e-02 -2.4911360e-01 0.0000000e+00 
-9.6753221e-03 -2.4929744e-01 0.0000000e+00 
-1.8020845e-02 -2.5234888e-01 0.0000000e+00 
-1.5318502e-02 -2.5253135e-01 0.0000000e+00 
-1.2616394e-02 -2.5271470e-01 0.0000000e+00 
-9.9142982e-03 -2.5289898e-01 0.0000000e+00 
-1.8270731e-02 -2.5595357e-01 0.0000000e+00 
-1.5565050e-02 -2.5613654e-01 0.0000000e+00 
-1.2859596e-02 -2.5632035e-01 0.0000000e+00 
-1.0154152e-02 -2.5650504e-01 0.0000000e+00 
-1.8520962e-02 -2.5956264e-01 0.0000000e+00 
-1.5812109e-02 -2.5974609e-01 0.0000000e+00 
-1.3103473e-02 -2.5993033e-01 0.0000000e+00 
-1.0394844e-02 -2.6011541e-01 0.0000000e+00 
-1.8771519e-02 -2.6317586e-01 0.0000000e+00 
-1.6059652e-02 -2.6335977e-01 0.0000000e+00 
-1.3347992e-02 -2.6354443e-01 0.0000000e+00 
-1.0636338e-02 -2.6372988e-01 0.0000000e+00 
-1.9022382e-02 -2.6679304e-01 0.0000000e+00 
-1.6307653e-02 -2.6697737e-01 0.0000000e+00 
-1.3593124e-02 -2.6716243e-01 0.0000000e+00 
-1.0878598e-02 -2.6734823e-01 0.0000000e+00 
-1.9273531e-02 -2.7041396e-01 0.0000000e+00 
-1.6556089e-02 -2.7059870e-01 0.0000000e+00 
-1.3838838e-02 -2.7078413e-01 0.0000000e+00 
-1.1121589e-02 -2.7097027e-01 0.0000000e+00 
-1.9524949e-02 -2.7403843e-01 0.0000000e+00 
-1.6804937e-02 -2.7422357e-01 0.0000000e+00 
-1.4085106e-02 -2.7440935e-01 0.0000000e+00 
-1.1365276e-02 -2.7459580e-01 0.0000000e+00 
-1.9776618e-02 -2.7766627e-01 0.0000000e+00 
-1.7054173e-02 -2.7785178e-01 0.0000000e+00 
-1.4331901e-02 -2.7803789e-01 0.0000000e+00 
-1.1609628e-02 -2.7822465e-01 0.0000000e+00 
-2.0028522e-02 -2.8129729e-01 0.0000000e+00 
-1.7303775e-02 -2.8148315e-01 0.0000000e+00 
-1.4579195e-02 -2.8166958e-01 0.0000000e+00 
-1.1854611e-02 -2.8185662e-01 0.0000000e+00 
-2.0280643e-02 -2.8493132e-01 0.0000000e+00 
-1.7553723e-02 -2.8511751e-01 0.0000000e+00 
-1.4826962e-02 -2.8530425e-01 0.0000000e+00 
-1.2100197e-02 -2.8549155e-01 0.0000000e+00 
-2.0532967e-02 -2.8856819e-01 0.0000000e+00 
-1.7803997e-02 -2.8875470e-01 0.0000000e+00 
-1.5075178e-02 -2.8894172e-01 0.0000000e+00 
-1.2346353e-02 -2.8912927e-01 0.0000000e+00 