# vtk DataFile Version 4.0
vtk output
ASCII
DATASET UNSTRUCTURED_GRID
POINTS 604 float
5.5000000e+00 5.9700000e+00 0.0000000e+00 
5.5000000e+00 5.9900000e+00 0.0000000e+00 
5.5266667e+00 5.9700000e+00 0.0000000e+00 
5.5266667e+00 5.9900000e+00 0.0000000e+00 
5.5000000e+00 6.0100000e+00 0.0000000e+00 
5.5266667e+00 6.0100000e+00 0.0000000e+00 
5.5533333e+00 5.9700000e+00 0.0000000e+00 
5.5533333e+00 5.9900000e+00 0.0000000e+00 
5.5000000e+00 6.0300000e+00 0.0000000e+00 
5.5266667e+00 6.0300000e+00 0.0000000e+00 
5.5533333e+00 6.0100000e+00 0.0000000e+00 
5.5800000e+00 5.9700000e+00 0.0000000e+00 
5.5533333e+00 6.0300000e+00 0.0000000e+00 
5.5800000e+00 5.9900000e+00 0.0000000e+00 
5.5800000e+00 6.0100000e+00 0.0000000e+00 
5.5800000e+00 6.0300000e+00 0.0000000e+00 
5.6066667e+00 5.9700000e+00 0.0000000e+00 
5.6066667e+00 5.9900000e+00 0.0000000e+00 
5.6066667e+00 6.0100000e+00 0.0000000e+00 
5.6066667e+00 6.0300000e+00 0.0000000e+00 
5.6333333e+00 5.9700000e+00 0.0000000e+00 
5.6333333e+00 5.9900000e+00 0.0000000e+00 
5.6333333e+00 6.0100000e+00 0.0000000e+00 
5.6333333e+00 6.0300000e+00 0.0000000e+00 
5.6600000e+00 5.9700000e+00 0.0000000e+00 
5.6600000e+00 5.9900000e+00 0.0000000e+00 
5.6600000e+00 6.0100000e+00 0.0000000e+00 
5.6600000e+00 6.0300000e+00 0.0000000e+00 
5.6866667e+00 5.9700000e+00 0.0000000e+00 
5.6866667e+00 5.9900000e+00 0.0000000e+00 
5.6866667e+00 6.0100000e+00 0.0000000e+00 
5.6866667e+00 6.0300000e+00 0.0000000e+00 
5.7133333e+00 5.9700000e+00 0.0000000e+00 
5.7133333e+00 5.9900000e+00 0.0000000e+00 
5.7133333e+00 6.0100000e+00 0.0000000e+00 
5.7133333e+00 6.0300000e+00 0.0000000e+00 
5.7400000e+00 5.9700000e+00 0.0000000e+00 
5.7400000e+00 5.9900000e+00 0.0000000e+00 
5.7400000e+00 6.0100000e+00 0.0000000e+00 
5.7400000e+00 6.0300000e+00 0.0000000e+00 
5.7666667e+00 5.9700000e+00 0.0000000e+00 
5.7666667e+00 5.9900000e+00 0.0000000e+00 
5.7666667e+00 6.0100000e+00 0.0000000e+00 
5.7666667e+00 6.0300000e+00 0.0000000e+00 
5.7933333e+00 5.9700000e+00 0.0000000e+00 
5.7933333e+00 5.9900000e+00 0.0000000e+00 
5.7933333e+00 6.0100000e+00 0.0000000e+00 
5.7933333e+00 6.0300000e+00 0.0000000e+00 
5.8200000e+00 5.9700000e+00 0.0000000e+00 
5.8200000e+00 5.9900000e+00 0.0000000e+00 
5.8200000e+00 6.0100000e+00 0.0000000e+00 
5.8200000e+00 6.0300000e+00 0.0000000e+00 
5.8466667e+00 5.9700000e+00 0.0000000e+00 
5.8466667e+00 5.9900000e+00 0.0000000e+00 
5.8466667e+00 6.0100000e+00 0.0000000e+00 
5.8466667e+00 6.0300000e+00 0.0000000e+00 
5.8733333e+00 5.9700000e+00 0.0000000e+00 
5.8733333e+00 5.9900000e+00 0.0000000e+00 
5.8733333e+00 6.0100000e+00 0.0000000e+00 
5.8733333e+00 6.0300000e+00 0.0000000e+00 
5.9000000e+00 5.9700000e+00 0.0000000e+00 
5.9000000e+00 5.9900000e+00 0.0000000e+00 
5.9000000e+00 6.0100000e+00 0.0000000e+00 
5.9000000e+00 6.0300000e+00 0.0000000e+00 
5.9266667e+00 5.9700000e+00 0.0000000e+00 
5.9266667e+00 5.9900000e+00 0.0000000e+00 
5.9266667e+00 6.0100000e+00 0.0000000e+00 
5.9266667e+00 6.0300000e+00 0.0000000e+00 
5.9533333e+00 5.9700000e+00 0.0000000e+00 
5.9533333e+00 5.9900000e+00 0.0000000e+00 
5.9533333e+00 6.0100000e+00 0.0000000e+00 
5.9533333e+00 6.0300000e+00 0.0000000e+00 
5.9800000e+00 5.9700000e+00 0.0000000e+00 
5.9800000e+00 5.9900000e+00 0.0000000e+00 
5.9800000e+00 6.0100000e+00 0.0000000e+00 
5.9800000e+00 6.0300000e+00 0.0000000e+00 
6.0066667e+00 5.9700000e+00 0.0000000e+00 
6.0066667e+00 5.9900000e+00 0.0000000e+00 
6.0066667e+00 6.0100000e+00 0.0000000e+00 
6.0066667e+00 6.0300000e+00 0.0000000e+00 
6.0333333e+00 5.9700000e+00 0.0000000e+00 
6.0333333e+00 5.9900000e+00 0.0000000e+00 
6.0333333e+00 6.0100000e+00 0.0000000e+00 
6.0333333e+00 6.0300000e+00 0.0000000e+00 
6.0600000e+00 5.9700000e+00 0.0000000e+00 
6.0600000e+00 5.9900000e+00 0.0000000e+00 
6.0600000e+00 6.0100000e+00 0.0000000e+00 
6.0600000e+00 6.0300000e+00 0.0000000e+00 
6.0866667e+00 5.9700000e+00 0.0000000e+00 
6.0866667e+00 5.9900000e+00 0.0000000e+00 
6.0866667e+00 6.0100000e+00 0.0000000e+00 
6.0866667e+00 6.0300000e+00 0.0000000e+00 
6.1133333e+00 5.9700000e+00 0.0000000e+00 
6.1133333e+00 5.9900000e+00 0.0000000e+00 
6.1133333e+00 6.0100000e+00 0.0000000e+00 
6.1133333e+00 6.0300000e+00 0.0000000e+00 
6.1400000e+00 5.9700000e+00 0.0000000e+00 
6.1400000e+00 5.9900000e+00 0.0000000e+00 
6.1400000e+00 6.0100000e+00 0.0000000e+00 
6.1400000e+00 6.0300000e+00 0.0000000e+00 
6.1666667e+00 5.9700000e+00 0.0000000e+00 
6.1666667e+00 5.9900000e+00 0.0000000e+00 
6.1666667e+00 6.0100000e+00 0.0000000e+00 
6.1666667e+00 6.0300000e+00 0.0000000e+00 
6.1933333e+00 5.9700000e+00 0.0000000e+00 
6.1933333e+00 5.9900000e+00 0.0000000e+00 
6.1933333e+00 6.0100000e+00 0.0000000e+00 
6.1933333e+00 6.0300000e+00 0.0000000e+00 
6.2200000e+00 5.9700000e+00 0.0000000e+00 
6.2200000e+00 5.9900000e+00 0.0000000e+00 
6.2200000e+00 6.0100000e+00 0.0000000e+00 
6.2200000e+00 6.0300000e+00 0.0000000e+00 
6.2466667e+00 5.9700000e+00 0.0000000e+00 
6.2466667e+00 5.9900000e+00 0.0000000e+00 
6.2466667e+00 6.0100000e+00 0.0000000e+00 
6.2466667e+00 6.0300000e+00 0.0000000e+00 
6.2733333e+00 5.9700000e+00 0.0000000e+00 
6.2733333e+00 5.9900000e+00 0.0000000e+00 
6.2733333e+00 6.0100000e+00 0.0000000e+00 
6.2733333e+00 6.0300000e+00 0.0000000e+00 
6.3000000e+00 5.9700000e+00 0.0000000e+00 
6.3000000e+00 5.9900000e+00 0.0000000e+00 
6.3000000e+00 6.0100000e+00 0.0000000e+00 
6.3000000e+00 6.0300000e+00 0.0000000e+00 
6.3266667e+00 5.9700000e+00 0.0000000e+00 
6.3266667e+00 5.9900000e+00 0.0000000e+00 
6.3266667e+00 6.0100000e+00 0.0000000e+00 
6.3266667e+00 6.0300000e+00 0.0000000e+00 
6.3533333e+00 5.9700000e+00 0.0000000e+00 
6.3533333e+00 5.9900000e+00 0.0000000e+00 
6.3533333e+00 6.0100000e+00 0.0000000e+00 
6.3533333e+00 6.0300000e+00 0.0000000e+00 
6.3800000e+00 5.9700000e+00 0.0000000e+00 
6.3800000e+00 5.9900000e+00 0.0000000e+00 
6.3800000e+00 6.0100000e+00 0.0000000e+00 
6.3800000e+00 6.0300000e+00 0.0000000e+00 
6.4066667e+00 5.9700000e+00 0.0000000e+00 
6.4066667e+00 5.9900000e+00 0.0000000e+00 
6.4066667e+00 6.0100000e+00 0.0000000e+00 
6.4066667e+00 6.0300000e+00 0.0000000e+00 
6.4333333e+00 5.9700000e+00 0.0000000e+00 
6.4333333e+00 5.9900000e+00 0.0000000e+00 
6.4333333e+00 6.0100000e+00 0.0000000e+00 
6.4333333e+00 6.0300000e+00 0.0000000e+00 
6.4600000e+00 5.9700000e+00 0.0000000e+00 
6.4600000e+00 5.9900000e+00 0.0000000e+00 
6.4600000e+00 6.0100000e+00 0.0000000e+00 
6.4600000e+00 6.0300000e+00 0.0000000e+00 
6.4866667e+00 5.9700000e+00 0.0000000e+00 
6.4866667e+00 5.9900000e+00 0.0000000e+00 
6.4866667e+00 6.0100000e+00 0.0000000e+00 
6.4866667e+00 6.0300000e+00 0.0000000e+00 
6.5133333e+00 5.9700000e+00 0.0000000e+00 
6.5133333e+00 5.9900000e+00 0.0000000e+00 
6.5133333e+00 6.0100000e+00 0.0000000e+00 
6.5133333e+00 6.0300000e+00 0.0000000e+00 
6.5400000e+00 5.9700000e+00 0.0000000e+00 
6.5400000e+00 5.9900000e+00 0.0000000e+00 
6.5400000e+00 6.0100000e+00 0.0000000e+00 
6.5400000e+00 6.0300000e+00 0.0000000e+00 
6.5666667e+00 5.9700000e+00 0.0000000e+00 
6.5666667e+00 5.9900000e+00 0.0000000e+00 
6.5666667e+00 6.0100000e+00 0.0000000e+00 
6.5666667e+00 6.0300000e+00 0.0000000e+00 
6.5933333e+00 5.9700000e+00 0.0000000e+00 
6.5933333e+00 5.9900000e+00 0.0000000e+00 
6.5933333e+00 6.0100000e+00 0.0000000e+00 
6.5933333e+00 6.0300000e+00 0.0000000e+00 
6.6200000e+00 5.9700000e+00 0.0000000e+00 
6.6200000e+00 5.9900000e+00 0.0000000e+00 
6.6200000e+00 6.0100000e+00 0.0000000e+00 
6.6200000e+00 6.0300000e+00 0.0000000e+00 
6.6466667e+00 5.9700000e+00 0.0000000e+00 
6.6466667e+00 5.9900000e+00 0.0000000e+00 
6.6466667e+00 6.0100000e+00 0.0000000e+00 
6.6466667e+00 6.0300000e+00 0.0000000e+00 
6.6733333e+00 5.9700000e+00 0.0000000e+00 
6.6733333e+00 5.9900000e+00 0.0000000e+00 
6.6733333e+00 6.0100000e+00 0.0000000e+00 
6.6733333e+00 6.0300000e+00 0.0000000e+00 
6.7000000e+00 5.9700000e+00 0.0000000e+00 
6.7000000e+00 5.9900000e+00 0.0000000e+00 
6.7000000e+00 6.0100000e+00 0.0000000e+00 
6.7000000e+00 6.0300000e+00 0.0000000e+00 
6.7266667e+00 5.9700000e+00 0.0000000e+00 
6.7266667e+00 5.9900000e+00 0.0000000e+00 
6.7266667e+00 6.0100000e+00 0.0000000e+00 
6.7266667e+00 6.0300000e+00 0.0000000e+00 
6.7533333e+00 5.9700000e+00 0.0000000e+00 
6.7533333e+00 5.9900000e+00 0.0000000e+00 
6.7533333e+00 6.0100000e+00 0.0000000e+00 
6.7533333e+00 6.0300000e+00 0.0000000e+00 
6.7800000e+00 5.9700000e+00 0.0000000e+00 
6.7800000e+00 5.9900000e+00 0.0000000e+00 
6.7800000e+00 6.0100000e+00 0.0000000e+00 
6.7800000e+00 6.0300000e+00 0.0000000e+00 
6.8066667e+00 5.9700000e+00 0.0000000e+00 
6.8066667e+00 5.9900000e+00 0.0000000e+00 
6.8066667e+00 6.0100000e+00 0.0000000e+00 
6.8066667e+00 6.0300000e+00 0.0000000e+00 
6.8333333e+00 5.9700000e+00 0.0000000e+00 
6.8333333e+00 5.9900000e+00 0.0000000e+00 
6.8333333e+00 6.0100000e+00 0.0000000e+00 
6.8333333e+00 6.0300000e+00 0.0000000e+00 
6.8600000e+00 5.9700000e+00 0.0000000e+00 
6.8600000e+00 5.9900000e+00 0.0000000e+00 
6.8600000e+00 6.0100000e+00 0.0000000e+00 
6.8600000e+00 6.0300000e+00 0.0000000e+00 
6.8866667e+00 5.9700000e+00 0.0000000e+00 
6.8866667e+00 5.9900000e+00 0.0000000e+00 
6.8866667e+00 6.0100000e+00 0.0000000e+00 
6.8866667e+00 6.0300000e+00 0.0000000e+00 
6.9133333e+00 5.9700000e+00 0.0000000e+00 
6.9133333e+00 5.9900000e+00 0.0000000e+00 
6.9133333e+00 6.0100000e+00 0.0000000e+00 
6.9133333e+00 6.0300000e+00 0.0000000e+00 
6.9400000e+00 5.9700000e+00 0.0000000e+00 
6.9400000e+00 5.9900000e+00 0.0000000e+00 
6.9400000e+00 6.0100000e+00 0.0000000e+00 
6.9400000e+00 6.0300000e+00 0.0000000e+00 
6.9666667e+00 5.9700000e+00 0.0000000e+00 
6.9666667e+00 5.9900000e+00 0.0000000e+00 
6.9666667e+00 6.0100000e+00 0.0000000e+00 
6.9666667e+00 6.0300000e+00 0.0000000e+00 
6.9933333e+00 5.9700000e+00 0.0000000e+00 
6.9933333e+00 5.9900000e+00 0.0000000e+00 
6.9933333e+00 6.0100000e+00 0.0000000e+00 
6.9933333e+00 6.0300000e+00 0.0000000e+00 
7.0200000e+00 5.9700000e+00 0.0000000e+00 
7.0200000e+00 5.9900000e+00 0.0000000e+00 
[...]
POINT_DATA 604
FIELD FieldData 2
DISPLACEMENT 3 604  float
0.0000000e+00 0.0000000e+00 0.0000000e+00 
0.0000000e+00 0.0000000e+00 0.0000000e+00 
7.1249343e-05 4.4167376e-05 0.0000000e+00 
2.2607738e-05 2.9203114e-05 0.0000000e+00 
0.0000000e+00 0.0000000e+00 0.0000000e+00 
-2.2229897e-05 2.9060719e-05 0.0000000e+00 
1.4234457e-04 1.3978095e-04 0.0000000e+00 
4.7470726e-05 1.2745487e-04 0.0000000e+00 
0.0000000e+00 0.0000000e+00 0.0000000e+00 
-7.0874255e-05 4.3738981e-05 0.0000000e+00 
-4.6944672e-05 1.2712077e-04 0.0000000e+00 
2.1111088e-04 2.9957276e-04 0.0000000e+00 
-1.4192888e-04 1.3881778e-04 0.0000000e+00 
7.0085926e-05 2.8707752e-04 0.0000000e+00 
-7.0003956e-05 2.8648468e-04 0.0000000e+00 
-2.1120813e-04 2.9781139e-04 0.0000000e+00 
2.7721622e-04 5.1962978e-04 0.0000000e+00 
9.1718835e-05 5.0718406e-04 0.0000000e+00 
-9.2937267e-05 5.0623241e-04 0.0000000e+00 
-2.7865685e-04 5.1678495e-04 0.0000000e+00 
3.4061466e-04 7.9820372e-04 0.0000000e+00 
1.1206648e-04 7.8568863e-04 0.0000000e+00 
-1.1566454e-04 7.8429429e-04 0.0000000e+00 
-3.4447445e-04 7.9402552e-04 0.0000000e+00 
4.0121928e-04 1.1333360e-03 0.0000000e+00 
1.3105549e-04 1.1206769e-03 0.0000000e+00 
-1.3832010e-04 1.1187665e-03 0.0000000e+00 
-4.0878140e-04 1.1276043e-03 0.0000000e+00 
4.5896284e-04 1.5231135e-03 0.0000000e+00 
1.4859950e-04 1.5102412e-03 0.0000000e+00 
-1.6100179e-04 1.5077501e-03 0.0000000e+00 
-4.7169397e-04 1.5156343e-03 0.0000000e+00 
5.1378830e-04 1.9656426e-03 0.0000000e+00 
1.6462599e-04 1.9524968e-03 0.0000000e+00 
-1.8379838e-04 1.9493684e-03 0.0000000e+00 
-5.3331665e-04 1.9562468e-03 0.0000000e+00 
5.6564961e-04 2.4590522e-03 0.0000000e+00 
1.7907302e-04 2.4455801e-03 0.0000000e+00 
-2.0678773e-04 2.4417658e-03 0.0000000e+00 
-5.9374322e-04 2.4475942e-03 0.0000000e+00 
6.1451092e-04 3.0014926e-03 0.0000000e+00 
1.9188891e-04 2.9876490e-03 0.0000000e+00 
-2.3003749e-04 2.9831076e-03 0.0000000e+00 
-6.5305772e-04 2.9878490e-03 0.0000000e+00 
6.6034622e-04 3.5911363e-03 0.0000000e+00 
2.0303163e-04 3.5768829e-03 0.0000000e+00 
-2.5360584e-04 3.5715803e-03 0.0000000e+00 
-7.1133407e-04 3.5752051e-03 0.0000000e+00 
7.0313871e-04 4.2261777e-03 0.0000000e+00 
2.1246833e-04 4.2114830e-03 0.0000000e+00 
-2.7754172e-04 4.2053917e-03 0.0000000e+00 
-7.6863807e-04 4.2078766e-03 0.0000000e+00 
7.4288027e-04 4.9048337e-03 0.0000000e+00 
2.2017479e-04 4.8896723e-03 0.0000000e+00 
-3.0188559e-04 4.8827711e-03 0.0000000e+00 
-8.2502600e-04 4.8840995e-03 0.0000000e+00 
7.7957088e-04 5.6253430e-03 0.0000000e+00 
2.2613492e-04 5.6096955e-03 0.0000000e+00 
-3.2666968e-04 5.6019690e-03 0.0000000e+00 
-8.8054675e-04 5.6021298e-03 0.0000000e+00 
8.1321828e-04 6.3859665e-03 0.0000000e+00 
2.3034028e-04 6.3698190e-03 0.0000000e+00 
-3.5191873e-04 6.3612577e-03 0.0000000e+00 
-9.3524103e-04 6.3602457e-03 0.0000000e+00 
8.4383745e-04 7.1849875e-03 0.0000000e+00 
2.3278962e-04 7.1683313e-03 0.0000000e+00 
-3.7765035e-04 7.1589306e-03 0.0000000e+00 
-9.8914295e-04 7.1567457e-03 0.0000000e+00 
8.7145025e-04 8.0207115e-03 0.0000000e+00 
2.3348848e-04 8.0035427e-03 0.0000000e+00 
-4.0387532e-04 7.9933028e-03 0.0000000e+00 
-1.0422801e-03 7.9899496e-03 0.0000000e+00 
8.9608483e-04 8.8914664e-03 0.0000000e+00 
2.3244865e-04 8.8737856e-03 0.0000000e+00 
-4.3059837e-04 8.8627114e-03 0.0000000e+00 
-1.0946734e-03 8.8581994e-03 0.0000000e+00 
9.1777522e-04 9.7956025e-03 0.0000000e+00 
2.2968778e-04 9.7774146e-03 0.0000000e+00 
-4.5781826e-04 9.7655152e-03 0.0000000e+00 
-1.1463384e-03 9.7598576e-03 0.0000000e+00 
9.3656088e-04 1.0731493e-02 0.0000000e+00 
2.2522891e-04 1.0712806e-02 0.0000000e+00 
-4.8552834e-04 1.0700095e-02 0.0000000e+00 
-1.1972850e-03 1.0693309e-02 0.0000000e+00 
9.5248599e-04 1.1697532e-02 0.0000000e+00 
2.1910013e-04 1.1678360e-02 0.0000000e+00 
-5.1371693e-04 1.1664853e-02 0.0000000e+00 
-1.2475176e-03 1.1656960e-02 0.0000000e+00 
9.6559974e-04 1.2692137e-02 0.0000000e+00 
2.1133417e-04 1.2672495e-02 0.0000000e+00 
-5.4236776e-04 1.2658212e-02 0.0000000e+00 
-1.2970364e-03 1.2649237e-02 0.0000000e+00 
9.7595577e-04 1.3713749e-02 0.0000000e+00 
2.0196804e-04 1.3693655e-02 0.0000000e+00 
-5.7146037e-04 1.3678619e-02 0.0000000e+00 
-1.3458381e-03 1.3668589e-02 0.0000000e+00 
9.8361159e-04 1.4760829e-02 0.0000000e+00 
1.9104273e-04 1.4740305e-02 0.0000000e+00 
-6.0097068e-04 1.4724542e-02 0.0000000e+00 
-1.3939145e-03 1.4713487e-02 0.0000000e+00 
9.8862866e-04 1.5831863e-02 0.0000000e+00 
1.7860269e-04 1.5810933e-02 0.0000000e+00 
-6.3087094e-04 1.5794471e-02 0.0000000e+00 
-1.4412562e-03 1.5782423e-02 0.0000000e+00 
9.9107131e-04 1.6925358e-02 0.0000000e+00 
1.6469559e-04 1.6904048e-02 0.0000000e+00 
-6.6113046e-04 1.6886919e-02 0.0000000e+00 
-1.4878485e-03 1.6873914e-02 0.0000000e+00 
9.9100686e-04 1.8039847e-02 0.0000000e+00 
1.4937190e-04 1.8018185e-02 0.0000000e+00 
-6.9171549e-04 1.8000420e-02 0.0000000e+00 
-1.5336749e-03 1.7986495e-02 0.0000000e+00 
9.8850504e-04 1.9173882e-02 0.0000000e+00 
1.3268470e-04 1.9151898e-02 0.0000000e+00 
-7.2258986e-04 1.9133532e-02 0.0000000e+00 
-1.5787159e-03 1.9118726e-02 0.0000000e+00 
9.8363804e-04 2.0326040e-02 0.0000000e+00 
1.1468926e-04 2.0303766e-02 0.0000000e+00 
-7.5371509e-04 2.0284834e-02 0.0000000e+00 
-1.6229501e-03 2.0269187e-02 0.0000000e+00 
9.7647984e-04 2.1494921e-02 0.0000000e+00 
9.5442839e-05 2.1472389e-02 0.0000000e+00 
-7.8505090e-04 2.1452929e-02 0.0000000e+00 
-1.6663540e-03 2.1436483e-02 0.0000000e+00 
9.6710639e-04 2.2679146e-02 0.0000000e+00 
7.5004313e-05 2.2656391e-02 0.0000000e+00 
-8.1655545e-04 2.2636441e-02 0.0000000e+00 
-1.7089028e-03 2.2619238e-02 0.0000000e+00 
9.5559515e-04 2.3877362e-02 0.0000000e+00 
5.3434065e-05 2.3854418e-02 0.0000000e+00 
-8.4818536e-04 2.3834017e-02 0.0000000e+00 
-1.7505707e-03 2.3816102e-02 0.0000000e+00 
9.4202455e-04 2.5088235e-02 0.0000000e+00 
3.0793596e-05 2.5065139e-02 0.0000000e+00 
-8.7989634e-04 2.5044327e-02 0.0000000e+00 
-1.7913300e-03 2.5025744e-02 0.0000000e+00 
9.2647414e-04 2.6310459e-02 0.0000000e+00 
7.1452538e-06 2.6287245e-02 0.0000000e+00 
-9.1164312e-04 2.6266064e-02 0.0000000e+00 
-1.8311531e-03 2.6246858e-02 0.0000000e+00 
9.0902393e-04 2.7542747e-02 0.0000000e+00 
-1.7448017e-05 2.7519453e-02 0.0000000e+00 
-9.4337970e-04 2.7497943e-02 0.0000000e+00 
-1.8700115e-03 2.7478160e-02 0.0000000e+00 
8.8975388e-04 2.8783838e-02 0.0000000e+00 
-4.2922825e-05 2.8760500e-02 0.0000000e+00 
-9.7505971e-04 2.8738702e-02 0.0000000e+00 
-1.9078744e-03 2.8718386e-02 0.0000000e+00 
8.6874477e-04 3.0032490e-02 0.0000000e+00 
-6.9215471e-05 3.0009145e-02 0.0000000e+00 
-1.0066365e-03 2.9987100e-02 0.0000000e+00 
-1.9447129e-03 2.9966300e-02 0.0000000e+00 
8.4607794e-04 3.1287488e-02 0.0000000e+00 
-9.6262248e-05 3.1264173e-02 0.0000000e+00 
-1.0380638e-03 3.1241923e-02 0.0000000e+00 
-1.9804983e-03 3.1220682e-02 0.0000000e+00 
8.2183432e-04 3.2547638e-02 0.0000000e+00 
-1.2399946e-04 3.2524389e-02 0.0000000e+00 
-1.0692958e-03 3.2501975e-02 0.0000000e+00 
-2.0152016e-03 3.2480340e-02 0.0000000e+00 
7.9609555e-04 3.3811772e-02 0.0000000e+00 
-1.5236392e-04 3.3788625e-02 0.0000000e+00 
-1.1002868e-03 3.3766087e-02 0.0000000e+00 
-2.0487970e-03 3.3744103e-02 0.0000000e+00 
7.6894183e-04 3.5078744e-02 0.0000000e+00 
-1.8129290e-04 3.5055735e-02 0.0000000e+00 
-1.1309923e-03 3.5033113e-02 0.0000000e+00 
-2.0812566e-03 3.5010826e-02 0.0000000e+00 
7.4045297e-04 3.6347434e-02 0.0000000e+00 
-2.1072456e-04 3.6324598e-02 0.0000000e+00 
-1.1613681e-03 3.6301932e-02 0.0000000e+00 
-2.1125546e-03 3.6279384e-02 0.0000000e+00 
7.1070771e-04 3.7616746e-02 0.0000000e+00 
-2.4059779e-04 3.7594116e-02 0.0000000e+00 
-1.1913712e-03 3.7571444e-02 0.0000000e+00 
-2.1426652e-03 3.7548681e-02 0.0000000e+00 
6.7978425e-04 3.8885605e-02 0.0000000e+00 
-2.7085255e-04 3.8863215e-02 0.0000000e+00 
-1.2209592e-03 3.8840575e-02 0.0000000e+00 
-2.1715648e-03 3.8817638e-02 0.0000000e+00 
6.4775940e-04 4.0152964e-02 0.0000000e+00 
-3.0142989e-04 4.0130845e-02 0.0000000e+00 
-1.2500915e-03 4.0108275e-02 0.0000000e+00 
-2.1992303e-03 4.0085206e-02 0.0000000e+00 
6.1470924e-04 4.1417797e-02 0.0000000e+00 
-3.3227214e-04 4.1395981e-02 0.0000000e+00 
-1.2787288e-03 4.1373517e-02 0.0000000e+00 
-2.2256408e-03 4.1350357e-02 0.0000000e+00 
5.8070876e-04 4.2679105e-02 0.0000000e+00 
-3.6332290e-04 4.2657623e-02 0.0000000e+00 
-1.3068330e-03 4.2635298e-02 0.0000000e+00 
-2.2507772e-03 4.2612087e-02 0.0000000e+00 
5.4583132e-04 4.3935914e-02 0.0000000e+00 
-3.9452725e-04 4.3914793e-02 0.0000000e+00 
-1.3343680e-03 4.3892642e-02 0.0000000e+00 
-2.2746217e-03 4.3869418e-02 0.0000000e+00 
5.1014912e-04 4.5187273e-02 0.0000000e+00 
-4.2583195e-04 4.5166541e-02 0.0000000e+00 
-1.3612993e-03 4.5144596e-02 0.0000000e+00 
-2.2971588e-03 4.5121397e-02 0.0000000e+00 
4.7373254e-04 4.6432259e-02 0.0000000e+00 
-4.5718534e-04 4.6411942e-02 0.0000000e+00 
-1.3875941e-03 4.6390234e-02 0.0000000e+00 
-2.3183743e-03 4.6367095e-02 0.0000000e+00 
4.3665052e-04 4.7669972e-02 0.0000000e+00 
-4.8853758e-04 4.7650094e-02 0.0000000e+00 
-1.4132217e-03 4.7628653e-02 0.0000000e+00 
-2.3382570e-03 4.7605608e-02 0.0000000e+00 
3.9897006e-04 4.8899538e-02 0.0000000e+00 
-5.1984083e-04 4.8880123e-02 0.0000000e+00 
-1.4381528e-03 4.8858977e-02 0.0000000e+00 
-2.3567973e-03 4.8836060e-02 0.0000000e+00 
3.6075524e-04 5.0120109e-02 0.0000000e+00 
-5.5104904e-04 5.0101179e-02 0.0000000e+00 
-1.4623605e-03 5.0080354e-02 0.0000000e+00 
-2.3739848e-03 5.0057597e-02 0.0000000e+00 
3.2206954e-04 5.1330862e-02 0.0000000e+00 
-5.8211807e-04 5.1312437e-02 0.0000000e+00 
-1.4858195e-03 5.1291957e-02 0.0000000e+00 
-2.3898144e-03 5.1269390e-02 0.0000000e+00 
2.8297509e-04 5.2530998e-02 0.0000000e+00 
-6.1300571e-04 5.2513096e-02 0.0000000e+00 
-1.5085073e-03 5.2492987e-02 0.0000000e+00 
-2.4042833e-03 5.2470638e-02 0.0000000e+00 
2.4353185e-04 5.3719748e-02 0.0000000e+00 
-6.4367158e-04 5.3702384e-02 0.0000000e+00 
-1.5304040e-03 5.3682667e-02 0.0000000e+00 
-2.4173903e-03 5.3660564e-02 0.0000000e+00 
2.0379931e-04 5.4896366e-02 0.0000000e+00 
-6.7407756e-04 5.4879557e-02 0.0000000e+00 
-1.5514914e-03 5.4860252e-02 0.0000000e+00 
-2.4291410e-03 5.4838420e-02 0.0000000e+00 
1.6383347e-04 5.6060137e-02 0.0000000e+00 
-7.0418763e-04 5.6043896e-02 0.0000000e+00 
-1.5717545e-03 5.6025022e-02 0.0000000e+00 
-2.4395390e-03 5.6003486e-02 0.0000000e+00 
1.2368850e-04 5.7210373e-02 0.0000000e+00 
-7.3396807e-04 5.7194711e-02 0.0000000e+00 
-1.5911796e-03 5.7176284e-02 0.0000000e+00 
-2.4485911e-03 5.7155066e-02 0.0000000e+00 
8.3416327e-05 5.8346411e-02 0.0000000e+00 
-7.6338720e-04 5.8331338e-02 0.0000000e+00 
-1.6097556e-03 5.8313374e-02 0.0000000e+00 
-2.4563065e-03 5.8292495e-02 0.0000000e+00 
4.3067194e-05 5.9467616e-02 0.0000000e+00 
-7.9241554e-04 5.9453140e-02 0.0000000e+00 
-1.6274736e-03 5.9435653e-02 0.0000000e+00 
-2.4626968e-03 5.9415132e-02 0.0000000e+00 
2.6894694e-06 6.0573381e-02 0.0000000e+00 
-8.2102560e-04 6.0559510e-02 0.0000000e+00 
-1.6443268e-03 6.0542511e-02 0.0000000e+00 
-2.4677765e-03 6.0522365e-02 0.0000000e+00 
-3.7670650e-05 6.1663128e-02 0.0000000e+00 
-8.4919203e-04 6.1649865e-02 0.0000000e+00 
-1.6603111e-03 6.1633366e-02 0.0000000e+00 
-2.4715619e-03 6.1613611e-02 0.0000000e+00 
-7.7968759e-05 6.2736305e-02 0.0000000e+00 
-8.7689160e-04 6.2723655e-02 0.0000000e+00 
-1.6754241e-03 6.2707663e-02 0.0000000e+00 
-2.4740725e-03 6.2688312e-02 0.0000000e+00 
-1.1816264e-04 6.3792390e-02 0.0000000e+00 
-9.0410341e-04 6.3780353e-02 0.0000000e+00 
-1.6896657e-03 6.3764876e-02 0.0000000e+00 
-2.4753299e-03 6.3745944e-02 0.0000000e+00 
-1.5821359e-04 6.4830886e-02 0.0000000e+00 
-9.3080842e-04 6.4819463e-02 0.0000000e+00 
-1.7030379e-03 6.4804507e-02 0.0000000e+00 
-2.4753537e-03 6.4786003e-02 0.0000000e+00 
-1.9808311e-04 6.5851327e-02 0.0000000e+00 
-9.5698956e-04 6.5840516e-02 0.0000000e+00 
-1.7155443e-03 6.5826084e-02 0.0000000e+00 
-2.4741704e-03 6.5808019e-02 0.0000000e+00 
-2.3773385e-04 6.6853272e-02 0.0000000e+00 
-9.8263158e-04 6.6843069e-02 0.0000000e+00 
-1.7271916e-03 6.6829165e-02 0.0000000e+00 
-2.4718078e-03 6.6811546e-02 0.0000000e+00 
-2.7713050e-04 6.7836310e-02 0.0000000e+00 
-1.0077208e-03 6.7826712e-02 0.0000000e+00 
-1.7379887e-03 6.7813336e-02 0.0000000e+00 
-2.4682961e-03 6.7796171e-02 0.0000000e+00 
-3.1623765e-04 6.8800064e-02 0.0000000e+00 
-1.0322459e-03 6.8791063e-02 0.0000000e+00 
-1.7479464e-03 6.8778214e-02 0.0000000e+00 
-2.4636723e-03 6.8761509e-02 0.0000000e+00 
-3.5502363e-04 6.9744183e-02 0.0000000e+00 
-1.0561969e-03 6.9735772e-02 0.0000000e+00 
-1.7570780e-03 6.9723449e-02 0.0000000e+00 
-2.4579704e-03 6.9707207e-02 0.0000000e+00 
-3.9345833e-04 7.0668347e-02 0.0000000e+00 
-1.0795664e-03 7.0660517e-02 0.0000000e+00 
-1.7653979e-03 7.0648718e-02 0.0000000e+00 
-2.4512271e-03 7.0632942e-02 0.0000000e+00 
-4.3151361e-04 7.1572267e-02 0.0000000e+00 
-1.1023482e-03 7.1565009e-02 0.0000000e+00 
-1.7729222e-03 7.1553727e-02 0.0000000e+00 
-2.4434807e-03 7.1538419e-02 0.0000000e+00 
-4.6916263e-04 7.2455683e-02 0.0000000e+00 
-1.1245378e-03 7.2448983e-02 0.0000000e+00 
-1.7796689e-03 7.2438215e-02 0.0000000e+00 
-2.4347712e-03 7.2423374e-02 0.0000000e+00 
-5.0638037e-04 7.3318362e-02 0.0000000e+00 
-1.1461324e-03 7.3312210e-02 0.0000000e+00 
-1.7856570e-03 7.3301947e-02 0.0000000e+00 
-2.4251404e-03 7.3287574e-02 0.0000000e+00 
-5.4314307e-04 7.4160104e-02 0.0000000e+00 
-1.1671306e-03 7.4154485e-02 0.0000000e+00 
-1.7909075e-03 7.4144721e-02 0.0000000e+00 
-2.4146309e-03 7.4130812e-02 0.0000000e+00 
-5.7942865e-04 7.4980738e-02 0.0000000e+00 
-1.1875324e-03 7.4975637e-02 0.0000000e+00 
-1.7954426e-03 7.4966363e-02 0.0000000e+00 
-2.4032871e-03 7.4952916e-02 0.0000000e+00 
-6.1521671e-04 7.5780120e-02 0.0000000e+00 
-1.2073392e-03 7.5775522e-02 0.0000000e+00 
-1.7992854e-03 7.5766728e-02 0.0000000e+00 
-2.3911544e-03 7.5753738e-02 0.0000000e+00 
-6.5048788e-04 7.6558137e-02 0.0000000e+00 
-1.2265538e-03 7.6554026e-02 0.0000000e+00 
-1.8024607e-03 7.6545701e-02 0.0000000e+00 
-2.3782788e-03 7.6533164e-02 0.0000000e+00 
-6.8522449e-04 7.7314704e-02 0.0000000e+00 
-1.2451800e-03 7.7311063e-02 0.0000000e+00 
-1.8049937e-03 7.7303196e-02 0.0000000e+00 
-2.3647078e-03 7.7291105e-02 0.0000000e+00 
-7.1941003e-04 7.8049767e-02 0.0000000e+00 
-1.2632226e-03 7.8046577e-02 0.0000000e+00 
-1.8069109e-03 7.8039156e-02 0.0000000e+00 
-2.3504890e-03 7.8027506e-02 0.0000000e+00 
-7.5302939e-04 7.8763296e-02 0.0000000e+00 
-1.2806882e-03 7.8760540e-02 0.0000000e+00 
-1.8082392e-03 7.8753552e-02 0.0000000e+00 
-2.3356713e-03 7.8742336e-02 0.0000000e+00 
-7.8607054e-04 7.9455291e-02 0.0000000e+00 
-1.2975834e-03 7.9452951e-02 0.0000000e+00 
-1.8090062e-03 7.9446383e-02 0.0000000e+00 
-2.3202997e-03 7.9435592e-02 0.0000000e+00 
-8.1852029e-04 8.0125779e-02 0.0000000e+00 
-1.3139161e-03 8.0123835e-02 0.0000000e+00 
-1.8092395e-03 8.0117672e-02 0.0000000e+00 
-2.3044249e-03 8.0107297e-02 0.0000000e+00 
-8.5036577e-04 8.0774812e-02 0.0000000e+00 
-1.3296944e-03 8.0773244e-02 0.0000000e+00 
-1.8089682e-03 8.0767474e-02 0.0000000e+00 
-2.2880938e-03 8.0757507e-02 0.0000000e+00 
-8.8159517e-04 8.1402471e-02 0.0000000e+00 
-1.3449269e-03 8.1401259e-02 0.0000000e+00 
-1.8082219e-03 8.1395866e-02 0.0000000e+00 
-2.2713566e-03 8.1386297e-02 0.0000000e+00 
-9.1219514e-04 8.2008866e-02 0.0000000e+00 
-1.3596228e-03 8.2007990e-02 0.0000000e+00 
-1.8070306e-03 8.2002959e-02 0.0000000e+00 
-2.2542692e-03 8.1993780e-02 0.0000000e+00 
-9.4215588e-04 8.2594135e-02 0.0000000e+00 
-1.3737920e-03 8.2593575e-02 0.0000000e+00 
-1.8054252e-03 8.2588891e-02 0.0000000e+00 
-2.2368808e-03 8.2580091e-02 0.0000000e+00 
-9.7146846e-04 8.3158443e-02 0.0000000e+00 
-1.3874452e-03 8.3158178e-02 0.0000000e+00 
-1.8034355e-03 8.3153826e-02 0.0000000e+00 
-2.2192396e-03 8.3145396e-02 0.0000000e+00 
-1.0001252e-03 8.3701978e-02 0.0000000e+00 
-1.4005933e-03 8.3701988e-02 0.0000000e+00 
-1.8010910e-03 8.3697952e-02 0.0000000e+00 
-2.2013947e-03 8.3689880e-02 0.0000000e+00 
-1.0281194e-03 8.4224954e-02 0.0000000e+00 
-1.4132475e-03 8.4225219e-02 0.0000000e+00 
-1.7984205e-03 8.4221485e-02 0.0000000e+00 
-2.1833930e-03 8.4213760e-02 0.0000000e+00 
-1.0554460e-03 8.4727609e-02 0.0000000e+00 
-1.4254198e-03 8.4728110e-02 0.0000000e+00 
-1.7954535e-03 8.4724663e-02 0.0000000e+00 
-2.1652798e-03 8.4717276e-02 0.0000000e+00 
-1.0821008e-03 8.5210202e-02 0.0000000e+00 
-1.4371223e-03 8.5210920e-02 0.0000000e+00 
-1.7922180e-03 8.5207744e-02 0.0000000e+00 
-2.1471000e-03 8.5200682e-02 0.0000000e+00 
-1.1080803e-03 8.5673013e-02 0.0000000e+00 
-1.4483670e-03 8.5673929e-02 0.0000000e+00 
-1.7887418e-03 8.5671009e-02 0.0000000e+00 
-2.1288971e-03 8.5664263e-02 0.0000000e+00 
-1.1333819e-03 8.6116342e-02 0.0000000e+00 
-1.4591666e-03 8.6117437e-02 0.0000000e+00 
-1.7850518e-03 8.6114759e-02 0.0000000e+00 
-2.1107136e-03 8.6108317e-02 0.0000000e+00 
-1.1580056e-03 8.6540508e-02 0.0000000e+00 
-1.4695331e-03 8.6541764e-02 0.0000000e+00 
-1.7811744e-03 8.6539314e-02 0.0000000e+00 
-2.0925867e-03 8.6533166e-02 0.0000000e+00 
-1.1819496e-03 8.6945847e-02 0.0000000e+00 
-1.4794788e-03 8.6947247e-02 0.0000000e+00 
-1.7771345e-03 8.6945010e-02 0.0000000e+00 
-2.0745573e-03 8.6939144e-02 0.0000000e+00 
-1.2052121e-03 8.7332712e-02 0.0000000e+00 
-1.4890154e-03 8.7334239e-02 0.0000000e+00 
-1.7729573e-03 8.7332202e-02 0.0000000e+00 
-2.0566610e-03 8.7326609e-02 0.0000000e+00 
-1.2277918e-03 8.7701475e-02 0.0000000e+00 
-1.4981539e-03 8.7703112e-02 0.0000000e+00 
-1.7686670e-03 8.7701261e-02 0.0000000e+00 
-2.0389355e-03 8.7695929e-02 0.0000000e+00 
-1.2496852e-03 8.8052526e-02 0.0000000e+00 
-1.5069054e-03 8.8054257e-02 0.0000000e+00 
-1.7642874e-03 8.8052579e-02 0.0000000e+00 
-2.0214208e-03 8.8047502e-02 0.0000000e+00 
-1.2708925e-03 8.8386272e-02 0.0000000e+00 
-1.5152811e-03 8.8388081e-02 0.0000000e+00 
-1.7598416e-03 8.8386564e-02 0.0000000e+00 
-2.0041503e-03 8.8381729e-02 0.0000000e+00 
-1.2914142e-03 8.8703133e-02 0.0000000e+00 
-1.5232920e-03 8.8705006e-02 0.0000000e+00 
-1.7553511e-03 8.8703638e-02 0.0000000e+00 
-1.9871552e-03 8.8699039e-02 0.0000000e+00 
-1.3112522e-03 8.9003543e-02 0.0000000e+00 
-1.5309490e-03 8.9005466e-02 0.0000000e+00 
-1.7508360e-03 8.9004236e-02 0.0000000e+00 
-1.9704655e-03 8.8999860e-02 0.0000000e+00 
-1.3304082e-03 8.9287948e-02 0.0000000e+00 
-1.5382629e-03 8.9289908e-02 0.0000000e+00 
-1.7463156e-03 8.9288806e-02 0.0000000e+00 
-1.9541085e-03 8.9284647e-02 0.0000000e+00 
-1.3488849e-03 8.9556805e-02 0.0000000e+00 
-1.5452438e-03 8.9558790e-02 0.0000000e+00 
-1.7418080e-03 8.9557803e-02 0.0000000e+00 
-1.9381105e-03 8.9553851e-02 0.0000000e+00 
-1.3666860e-03 8.9810581e-02 0.0000000e+00 
-1.5519018e-03 8.9812579e-02 0.0000000e+00 
-1.7373291e-03 8.9811698e-02 0.0000000e+00 
-1.9224946e-03 8.9807945e-02 0.0000000e+00 
-1.3838161e-03 9.0049749e-02 0.0000000e+00 
-1.5582472e-03 9.0051750e-02 0.0000000e+00 
-1.7328951e-03 9.0050967e-02 0.0000000e+00 
-1.9072808e-03 9.0047406e-02 0.0000000e+00 
-1.4002812e-03 9.0274792e-02 0.0000000e+00 
-1.5642899e-03 9.0276786e-02 0.0000000e+00 
-1.7285201e-03 9.0276091e-02 0.0000000e+00 
-1.8924882e-03 9.0272712e-02 0.0000000e+00 
-1.4160874e-03 9.0486193e-02 0.0000000e+00 
-1.5700396e-03 9.0488171e-02 0.0000000e+00 
-1.7242172e-03 9.0487557e-02 0.0000000e+00 
-1.8781330e-03 9.0484355e-02 0.0000000e+00 
-1.4312412e-03 9.0684443e-02 0.0000000e+00 
-1.5755058e-03 9.0686397e-02 0.0000000e+00 
-1.7199981e-03 9.0685854e-02 0.0000000e+00 
-1.8642302e-03 9.0682821e-02 0.0000000e+00 
-1.4457520e-03 9.0870032e-02 0.0000000e+00 
-1.5806976e-03 9.0871955e-02 0.0000000e+00 
-1.7158736e-03 9.0871478e-02 0.0000000e+00 
-1.8507905e-03 9.0868607e-02 0.0000000e+00 
-1.4596272e-03 9.1043455e-02 0.0000000e+00 
-1.5856239e-03 9.1045339e-02 0.0000000e+00 
-1.7118532e-03 9.1044920e-02 0.0000000e+00 
-1.8378257e-03 9.1042204e-02 0.0000000e+00 
-1.4728746e-03 9.1205203e-02 0.0000000e+00 
-1.5902930e-03 9.1207042e-02 0.0000000e+00 
-1.7079456e-03 9.1206677e-02 0.0000000e+00 