# vtk DataFile Version 4.0
vtk output
ASCII
DATASET UNSTRUCTURED_GRID
POINTS 604 float
5.5000000e+00 5.9700000e+00 0.0000000e+00 
5.5000000e+00 5.9900000e+00 0.0000000e+00 
5.5266667e+00 5.9700000e+00 0.0000000e+00 
5.5266667e+00 5.9900000e+00 0.0000000e+00 
5.5000000e+00 6.0100000e+00 0.0000000e+00 
5.5266667e+00 6.0100000e+00 0.0000000e+00 
5.5533333e+00 5.9700000e+00 0.0000000e+00 
5.5533333e+00 5.9900000e+00 0.0000000e+00 
5.5000000e+00 6.0300000e+00 0.0000000e+00 
5.5266667e+00 6.0300000e+00 0.0000000e+00 
5.5533333e+00 6.0100000e+00 0.0000000e+00 
5.5800000e+00 5.9700000e+00 0.0000000e+00 
5.5533333e+00 6.0300000e+00 0.0000000e+00 
5.5800000e+00 5.9900000e+00 0.0000000e+00 
5.5800000e+00 6.0100000e+00 0.0000000e+00 
5.5800000e+00 6.0300000e+00 0.0000000e+00 
5.6066667e+00 5.9700000e+00 0.0000000e+00 
5.6066667e+00 5.9900000e+00 0.0000000e+00 
5.6066667e+00 6.0100000e+00 0.0000000e+00 
5.6066667e+00 6.0300000e+00 0.0000000e+00 
5.6333333e+00 5.9700000e+00 0.0000000e+00 
5.6333333e+00 5.9900000e+00 0.0000000e+00 
5.6333333e+00 6.0100000e+00 0.0000000e+00 
5.6333333e+00 6.0300000e+00 0.0000000e+00 
5.6600000e+00 5.9700000e+00 0.0000000e+00 
5.6600000e+00 5.9900000e+00 0.0000000e+00 
5.6600000e+00 6.0100000e+00 0.0000000e+00 
5.6600000e+00 6.0300000e+00 0.0000000e+00 
5.6866667e+00 5.9700000e+00 0.0000000e+00 
5.6866667e+00 5.9900000e+00 0.0000000e+00 
5.6866667e+00 6.0100000e+00 0.0000000e+00 
5.6866667e+00 6.0300000e+00 0.0000000e+00 
5.7133333e+00 5.9700000e+00 0.0000000e+00 
5.7133333e+00 5.9900000e+00 0.0000000e+00 
5.7133333e+00 6.0100000e+00 0.0000000e+00 
5.7133333e+00 6.0300000e+00 0.0000000e+00 
5.7400000e+00 5.9700000e+00 0.0000000e+00 
5.7400000e+00 5.9900000e+00 0.0000000e+00 
5.7400000e+00 6.0100000e+00 0.0000000e+00 
5.7400000e+00 6.0300000e+00 0.0000000e+00 
5.7666667e+00 5.9700000e+00 0.0000000e+00 
5.7666667e+00 5.9900000e+00 0.0000000e+00 
5.7666667e+00 6.0100000e+00 0.0000000e+00 
5.7666667e+00 6.0300000e+00 0.0000000e+00 
5.7933333e+00 5.9700000e+00 0.0000000e+00 
5.7933333e+00 5.9900000e+00 0.0000000e+00 
5.7933333e+00 6.0100000e+00 0.0000000e+00 
5.7933333e+00 6.0300000e+00 0.0000000e+00 
5.8200000e+00 5.9700000e+00 0.0000000e+00 
5.8200000e+00 5.9900000e+00 0.0000000e+00 
5.8200000e+00 6.0100000e+00 0.0000000e+00 
5.8200000e+00 6.0300000e+00 0.0000000e+00 
5.8466667e+00 5.9700000e+00 0.0000000e+00 
5.8466667e+00 5.9900000e+00 0.0000000e+00 
5.8466667e+00 6.0100000e+00 0.0000000e+00 
5.8466667e+00 6.0300000e+00 0.0000000e+00 
5.8733333e+00 5.9700000e+00 0.0000000e+00 
5.8733333e+00 5.9900000e+00 0.0000000e+00 
5.8733333e+00 6.0100000e+00 0.0000000e+00 
5.8733333e+00 6.0300000e+00 0.0000000e+00 
5.9000000e+00 5.9700000e+00 0.0000000e+00 
5.9000000e+00 5.9900000e+00 0.0000000e+00 
5.9000000e+00 6.0100000e+00 0.0000000e+00 
5.9000000e+00 6.0300000e+00 0.0000000e+00 
5.9266667e+00 5.9700000e+00 0.0000000e+00 
5.9266667e+00 5.9900000e+00 0.0000000e+00 
5.9266667e+00 6.0100000e+00 0.0000000e+00 
5.9266667e+00 6.0300000e+00 0.0000000e+00 
5.9533333e+00 5.9700000e+00 0.0000000e+00 
5.9533333e+00 5.9900000e+00 0.0000000e+00 
5.9533333e+00 6.0100000e+00 0.0000000e+00 
5.9533333e+00 6.0300000e+00 0.0000000e+00 
5.9800000e+00 5.9700000e+00 0.0000000e+00 
5.9800000e+00 5.9900000e+00 0.0000000e+00 
5.9800000e+00 6.0100000e+00 0.0000000e+00 
5.9800000e+00 6.0300000e+00 0.0000000e+00 
6.0066667e+00 5.9700000e+00 0.0000000e+00 
6.0066667e+00 5.9900000e+00 0.0000000e+00 
6.0066667e+00 6.0100000e+00 0.0000000e+00 
6.0066667e+00 6.0300000e+00 0.0000000e+00 
6.0333333e+00 5.9700000e+00 0.0000000e+00 
6.0333333e+00 5.9900000e+00 0.0000000e+00 
6.0333333e+00 6.0100000e+00 0.0000000e+00 
6.0333333e+00 6.0300000e+00 0.0000000e+00 
6.0600000e+00 5.9700000e+00 0.0000000e+00 
6.0600000e+00 5.9900000e+00 0.0000000e+00 
6.0600000e+00 6.0100000e+00 0.0000000e+00 
6.0600000e+00 6.0300000e+00 0.0000000e+00 
6.0866667e+00 5.9700000e+00 0.0000000e+00 
6.0866667e+00 5.9900000e+00 0.0000000e+00 
6.0866667e+00 6.0100000e+00 0.0000000e+00 
6.0866667e+00 6.0300000e+00 0.0000000e+00 
6.1133333e+00 5.9700000e+00 0.0000000e+00 
6.1133333e+00 5.9900000e+00 0.0000000e+00 
6.1133333e+00 6.0100000e+00 0.0000000e+00 
6.1133333e+00 6.0300000e+00 0.0000000e+00 
6.1400000e+00 5.9700000e+00 0.0000000e+00 
6.1400000e+00 5.9900000e+00 0.0000000e+00 
6.1400000e+00 6.0100000e+00 0.0000000e+00 
6.1400000e+00 6.0300000e+00 0.0000000e+00 
6.1666667e+00 5.9700000e+00 0.0000000e+00 
6.1666667e+00 5.9900000e+00 0.0000000e+00 
6.1666667e+00 6.0100000e+00 0.0000000e+00 
6.1666667e+00 6.0300000e+00 0.0000000e+00 
6.1933333e+00 5.9700000e+00 0.0000000e+00 
6.1933333e+00 5.9900000e+00 0.0000000e+00 
6.1933333e+00 6.0100000e+00 0.0000000e+00 
6.1933333e+00 6.0300000e+00 0.0000000e+00 
6.2200000e+00 5.9700000e+00 0.0000000e+00 
6.2200000e+00 5.9900000e+00 0.0000000e+00 
6.2200000e+00 6.0100000e+00 0.0000000e+00 
6.2200000e+00 6.0300000e+00 0.0000000e+00 
6.2466667e+00 5.9700000e+00 0.0000000e+00 
6.2466667e+00 5.9900000e+00 0.0000000e+00 
6.2466667e+00 6.0100000e+00 0.0000000e+00 
6.2466667e+00 6.0300000e+00 0.0000000e+00 
6.2733333e+00 5.9700000e+00 0.0000000e+00 
6.2733333e+00 5.9900000e+00 0.0000000e+00 
6.2733333e+00 6.0100000e+00 0.0000000e+00 
6.2733333e+00 6.0300000e+00 0.0000000e+00 
6.3000000e+00 5.9700000e+00 0.0000000e+00 
6.3000000e+00 5.9900000e+00 0.0000000e+00 
6.3000000e+00 6.0100000e+00 0.0000000e+00 
6.3000000e+00 6.0300000e+00 0.0000000e+00 
6.3266667e+00 5.9700000e+00 0.0000000e+00 
6.3266667e+00 5.9900000e+00 0.0000000e+00 
6.3266667e+00 6.0100000e+00 0.0000000e+00 
6.3266667e+00 6.0300000e+00 0.0000000e+00 
6.3533333e+00 5.9700000e+00 0.0000000e+00 
6.3533333e+00 5.9900000e+00 0.0000000e+00 
6.3533333e+00 6.0100000e+00 0.0000000e+00 
6.3533333e+00 6.0300000e+00 0.0000000e+00 
6.3800000e+00 5.9700000e+00 0.0000000e+00 
6.3800000e+00 5.9900000e+00 0.0000000e+00 
6.3800000e+00 6.0100000e+00 0.0000000e+00 
6.3800000e+00 6.0300000e+00 0.0000000e+00 
6.4066667e+00 5.9700000e+00 0.0000000e+00 
6.4066667e+00 5.9900000e+00 0.0000000e+00 
6.4066667e+00 6.0100000e+00 0.0000000e+00 
6.4066667e+00 6.0300000e+00 0.0000000e+00 
6.4333333e+00 5.9700000e+00 0.0000000e+00 
6.4333333e+00 5.9900000e+00 0.0000000e+00 
6.4333333e+00 6.0100000e+00 0.0000000e+00 
6.4333333e+00 6.0300000e+00 0.0000000e+00 
6.4600000e+00 5.9700000e+00 0.0000000e+00 
6.4600000e+00 5.9900000e+00 0.0000000e+00 
6.4600000e+00 6.0100000e+00 0.0000000e+00 
6.4600000e+00 6.0300000e+00 0.0000000e+00 
6.4866667e+00 5.9700000e+00 0.0000000e+00 
6.4866667e+00 5.9900000e+00 0.0000000e+00 
6.4866667e+00 6.0100000e+00 0.0000000e+00 
6.4866667e+00 6.0300000e+00 0.0000000e+00 
6.5133333e+00 5.9700000e+00 0.0000000e+00 
6.5133333e+00 5.9900000e+00 0.0000000e+00 
6.5133333e+00 6.0100000e+00 0.0000000e+00 
6.5133333e+00 6.0300000e+00 0.0000000e+00 
6.5400000e+00 5.9700000e+00 0.0000000e+00 
6.5400000e+00 5.9900000e+00 0.0000000e+00 
6.5400000e+00 6.0100000e+00 0.0000000e+00 
6.5400000e+00 6.0300000e+00 0.0000000e+00 
6.5666667e+00 5.9700000e+00 0.0000000e+00 
6.5666667e+00 5.9900000e+00 0.0000000e+00 
6.5666667e+00 6.0100000e+00 0.0000000e+00 
6.5666667e+00 6.0300000e+00 0.0000000e+00 
6.5933333e+00 5.9700000e+00 0.0000000e+00 
6.5933333e+00 5.9900000e+00 0.0000000e+00 
6.5933333e+00 6.0100000e+00 0.0000000e+00 
6.5933333e+00 6.0300000e+00 0.0000000e+00 
6.6200000e+00 5.9700000e+00 0.0000000e+00 
6.6200000e+00 5.9900000e+00 0.0000000e+00 
6.6200000e+00 6.0100000e+00 0.0000000e+00 
6.6200000e+00 6.0300000e+00 0.0000000e+00 
6.6466667e+00 5.9700000e+00 0.0000000e+00 
6.6466667e+00 5.9900000e+00 0.0000000e+00 
6.6466667e+00 6.0100000e+00 0.0000000e+00 
6.6466667e+00 6.0300000e+00 0.0000000e+00 
6.6733333e+00 5.9700000e+00 0.0000000e+00 
6.6733333e+00 5.9900000e+00 0.0000000e+00 
6.6733333e+00 6.0100000e+00 0.0000000e+00 
6.6733333e+00 6.0300000e+00 0.0000000e+00 
6.7000000e+00 5.9700000e+00 0.0000000e+00 
6.7000000e+00 5.9900000e+00 0.0000000e+00 
6.7000000e+00 6.0100000e+00 0.0000000e+00 
6.7000000e+00 6.0300000e+00 0.0000000e+00 
6.7266667e+00 5.9700000e+00 0.0000000e+00 
6.7266667e+00 5.9900000e+00 0.0000000e+00 
6.7266667e+00 6.0100000e+00 0.0000000e+00 
6.7266667e+00 6.0300000e+00 0.0000000e+00 
6.7533333e+00 5.9700000e+00 0.0000000e+00 
6.7533333e+00 5.9900000e+00 0.0000000e+00 
6.7533333e+00 6.0100000e+00 0.0000000e+00 
6.7533333e+00 6.0300000e+00 0.0000000e+00 
6.7800000e+00 5.9700000e+00 0.0000000e+00 
6.7800000e+00 5.9900000e+00 0.0000000e+00 
6.7800000e+00 6.0100000e+00 0.0000000e+00 
6.7800000e+00 6.0300000e+00 0.0000000e+00 
6.8066667e+00 5.9700000e+00 0.0000000e+00 
6.8066667e+00 5.9900000e+00 0.0000000e+00 
6.8066667e+00 6.0100000e+00 0.0000000e+00 
6.8066667e+00 6.0300000e+00 0.0000000e+00 
6.8333333e+00 5.9700000e+00 0.0000000e+00 
6.8333333e+00 5.9900000e+00 0.0000000e+00 
6.8333333e+00 6.0100000e+00 0.0000000e+00 
6.8333333e+00 6.0300000e+00 0.0000000e+00 
6.8600000e+00 5.9700000e+00 0.0000000e+00 
6.8600000e+00 5.9900000e+00 0.0000000e+00 
6.8600000e+00 6.0100000e+00 0.0000000e+00 
6.8600000e+00 6.0300000e+00 0.0000000e+00 
6.8866667e+00 5.9700000e+00 0.0000000e+00 
6.8866667e+00 5.9900000e+00 0.0000000e+00 
6.8866667e+00 6.0100000e+00 0.0000000e+00 
6.8866667e+00 6.0300000e+00 0.0000000e+00 
6.9133333e+00 5.9700000e+00 0.0000000e+00 
6.9133333e+00 5.9900000e+00 0.0000000e+00 
6.9133333e+00 6.0100000e+00 0.0000000e+00 
6.9133333e+00 6.0300000e+00 0.0000000e+00 
6.9400000e+00 5.9700000e+00 0.0000000e+00 
6.9400000e+00 5.9900000e+00 0.0000000e+00 
6.9400000e+00 6.0100000e+00 0.0000000e+00 
6.9400000e+00 6.0300000e+00 0.0000000e+00 
6.9666667e+00 5.9700000e+00 0.0000000e+00 
6.9666667e+00 5.9900000e+00 0.0000000e+00 
6.9666667e+00 6.0100000e+00 0.0000000e+00 
6.9666667e+00 6.0300000e+00 0.0000000e+00 
6.9933333e+00 5.9700000e+00 0.0000000e+00 
6.9933333e+00 5.9900000e+00 0.0000000e+00 
6.9933333e+00 6.0100000e+00 0.0000000e+00 
6.9933333e+00 6.0300000e+00 0.0000000e+00 
7.0200000e+00 5.9700000e+00 0.0000000e+00 
7.0200000e+00 5.9900000e+00 0.0000000e+00 
[...]
POINT_DATA 604
FIELD FieldData 2
DISPLACEMENT 3 604  float
0.0000000e+00 0.0000000e+00 0.0000000e+00 
0.0000000e+00 0.0000000e+00 0.0000000e+00 
8.4017624e-06 4.9255561e-06 0.0000000e+00 
2.6667778e-06 3.1652428e-06 0.0000000e+00 
0.0000000e+00 0.0000000e+00 0.0000000e+00 
-2.7388980e-06 3.1874698e-06 0.0000000e+00 
1.7075992e-05 1.6136168e-05 0.0000000e+00 
5.6514085e-06 1.4663477e-05 0.0000000e+00 
0.0000000e+00 0.0000000e+00 0.0000000e+00 
-8.4910797e-06 5.0001576e-06 0.0000000e+00 
-5.8224373e-06 1.4687481e-05 0.0000000e+00 
2.5742629e-05 3.5316150e-05 0.0000000e+00 
-1.7251046e-05 1.6204496e-05 0.0000000e+00 
8.4842868e-06 3.3808696e-05 0.0000000e+00 
-8.7593209e-06 3.3826642e-05 0.0000000e+00 
-2.6019654e-05 3.5370779e-05 0.0000000e+00 
3.4375629e-05 6.2212186e-05 0.0000000e+00 
1.1325732e-05 6.0705862e-05 0.0000000e+00 
-1.1716770e-05 6.0717887e-05 0.0000000e+00 
-3.4769975e-05 6.2248708e-05 0.0000000e+00 
4.2978544e-05 9.6830988e-05 0.0000000e+00 
1.4148407e-05 9.5320905e-05 0.0000000e+00 
-1.4673315e-05 9.5325448e-05 0.0000000e+00 
-4.3507715e-05 9.6845111e-05 0.0000000e+00 
5.1546458e-05 1.3915002e-04 0.0000000e+00 
1.6952237e-05 1.3763514e-04 0.0000000e+00 
-1.7633335e-05 1.3763058e-04 0.0000000e+00 
-5.2232685e-05 1.3913678e-04 0.0000000e+00 
6.0075626e-05 1.8914754e-04 0.0000000e+00 
1.9734219e-05 1.8762652e-04 0.0000000e+00 
-2.0598192e-05 1.8761123e-04 0.0000000e+00 
-6.0945495e-05 1.8910210e-04 0.0000000e+00 
6.8562148e-05 2.4680016e-04 0.0000000e+00 
2.2491666e-05 2.4527167e-04 0.0000000e+00 
-2.3569517e-05 2.4524403e-04 0.0000000e+00 
-6.9646736e-05 2.4671765e-04 0.0000000e+00 
7.7002291e-05 3.1208296e-04 0.0000000e+00 
2.5221856e-05 3.1054574e-04 0.0000000e+00 
-2.6548925e-05 3.1050418e-04 0.0000000e+00 
-7.8336849e-05 3.1195872e-04 0.0000000e+00 
8.5392201e-05 3.8496969e-04 0.0000000e+00 
2.7922127e-05 3.8342241e-04 0.0000000e+00 
-2.9537985e-05 3.8336536e-04 0.0000000e+00 
-8.7016366e-05 3.8479892e-04 0.0000000e+00 
9.3728210e-05 4.6543244e-04 0.0000000e+00 
3.0589813e-05 4.6387391e-04 0.0000000e+00 
-3.2538255e-05 4.6379984e-04 0.0000000e+00 
-9.5685700e-05 4.6521063e-04 0.0000000e+00 
1.0200652e-04 5.5344208e-04 0.0000000e+00 
3.3222310e-05 5.5187100e-04 0.0000000e+00 
-3.5551249e-05 5.5177837e-04 0.0000000e+00 
-1.0434530e-04 5.5316452e-04 0.0000000e+00 
1.1022351e-04 6.4896774e-04 0.0000000e+00 
3.5817020e-05 6.4738295e-04 0.0000000e+00 
-3.8578470e-05 6.4727028e-04 0.0000000e+00 
-1.1299553e-04 6.4863009e-04 0.0000000e+00 
1.1837551e-04 7.5197738e-04 0.0000000e+00 
3.8371410e-05 7.5037763e-04 0.0000000e+00 
-4.1621373e-05 7.5024342e-04 0.0000000e+00 
-1.2163682e-04 7.5157504e-04 0.0000000e+00 
1.2645898e-04 8.6243722e-04 0.0000000e+00 
4.0882965e-05 8.6082140e-04 0.0000000e+00 
-4.4681399e-05 8.6066424e-04 0.0000000e+00 
-1.3026951e-04 8.6196602e-04 0.0000000e+00 
1.3447037e-04 9.8031231e-04 0.0000000e+00 
4.3349201e-05 9.7867926e-04 0.0000000e+00 
-4.7759980e-05 9.7849771e-04 0.0000000e+00 
-1.3889394e-04 9.7976795e-04 0.0000000e+00 
1.4240621e-04 1.1055662e-03 0.0000000e+00 
4.5767725e-05 1.1039148e-03 0.0000000e+00 
-5.0858455e-05 1.1037074e-03 0.0000000e+00 
-1.4751046e-04 1.1049443e-03 0.0000000e+00 
1.5026313e-04 1.2381610e-03 0.0000000e+00 
4.8136163e-05 1.2364901e-03 0.0000000e+00 
-5.3978171e-05 1.2362556e-03 0.0000000e+00 
-1.5611935e-04 1.2374576e-03 0.0000000e+00 
1.5803776e-04 1.3780576e-03 0.0000000e+00 
5.0452191e-05 1.3763661e-03 0.0000000e+00 
-5.7120434e-05 1.3761030e-03 0.0000000e+00 
-1.6472092e-04 1.3772685e-03 0.0000000e+00 
1.6572683e-04 1.5252153e-03 0.0000000e+00 
5.2713541e-05 1.5235022e-03 0.0000000e+00 
-6.0286525e-05 1.5232092e-03 0.0000000e+00 
-1.7331543e-04 1.5243367e-03 0.0000000e+00 
1.7332720e-04 1.6795923e-03 0.0000000e+00 
5.4917992e-05 1.6778565e-03 0.0000000e+00 
-6.3477688e-05 1.6775324e-03 0.0000000e+00 
-1.8190317e-04 1.6786202e-03 0.0000000e+00 
1.8083572e-04 1.8411455e-03 0.0000000e+00 
5.7063382e-05 1.8393860e-03 0.0000000e+00 
-6.6695123e-05 1.8390295e-03 0.0000000e+00 
-1.9048441e-04 1.8400762e-03 0.0000000e+00 
1.8824930e-04 2.0098304e-03 0.0000000e+00 
5.9147583e-05 2.0080463e-03 0.0000000e+00 
-6.9939999e-05 2.0076562e-03 0.0000000e+00 
-1.9905930e-04 2.0086602e-03 0.0000000e+00 
1.9556493e-04 2.1856013e-03 0.0000000e+00 
6.1168511e-05 2.1837916e-03 0.0000000e+00 
-7.3213423e-05 2.1833667e-03 0.0000000e+00 
-2.0762806e-04 2.1843267e-03 0.0000000e+00 
2.0277955e-04 2.3684112e-03 0.0000000e+00 
6.3124139e-05 2.3665750e-03 0.0000000e+00 
-7.6516482e-05 2.3661142e-03 0.0000000e+00 
-2.1619071e-04 2.3670287e-03 0.0000000e+00 
2.0989026e-04 2.5582119e-03 0.0000000e+00 
6.5012485e-05 2.5563483e-03 0.0000000e+00 
-7.9850199e-05 2.5558504e-03 0.0000000e+00 
-2.2474741e-04 2.5567181e-03 0.0000000e+00 
2.1689425e-04 2.7549538e-03 0.0000000e+00 
6.6831628e-05 2.7530620e-03 0.0000000e+00 
-8.3215582e-05 2.7525259e-03 0.0000000e+00 
-2.3329819e-04 2.7533454e-03 0.0000000e+00 
2.2378872e-04 2.9585861e-03 0.0000000e+00 
6.8579705e-05 2.9566653e-03 0.0000000e+00 
-8.6613580e-05 2.9560900e-03 0.0000000e+00 
-2.4184315e-04 2.9568601e-03 0.0000000e+00 
2.3057097e-04 3.1690570e-03 0.0000000e+00 
7.0254905e-05 3.1671064e-03 0.0000000e+00 
-9.0045114e-05 3.1664909e-03 0.0000000e+00 
-2.5038226e-04 3.1672103e-03 0.0000000e+00 
2.3723835e-04 3.3863134e-03 0.0000000e+00 
7.1855469e-05 3.3843322e-03 0.0000000e+00 
-9.3511044e-05 3.3836755e-03 0.0000000e+00 
-2.5891554e-04 3.3843430e-03 0.0000000e+00 
2.4378827e-04 3.6103008e-03 0.0000000e+00 
7.3379688e-05 3.6082884e-03 0.0000000e+00 
-9.7012206e-05 3.6075895e-03 0.0000000e+00 
-2.6744290e-04 3.6082040e-03 0.0000000e+00 
2.5021823e-04 3.8409638e-03 0.0000000e+00 
7.4825920e-05 3.8389195e-03 0.0000000e+00 
-1.0054937e-04 3.8381776e-03 0.0000000e+00 
-2.7596425e-04 3.8387379e-03 0.0000000e+00 
2.5652577e-04 4.0782458e-03 0.0000000e+00 
7.6192576e-05 4.0761690e-03 0.0000000e+00 
-1.0412326e-04 4.0753832e-03 0.0000000e+00 
-2.8447949e-04 4.0758882e-03 0.0000000e+00 
2.6270852e-04 4.3220891e-03 0.0000000e+00 
7.7478121e-05 4.3199791e-03 0.0000000e+00 
-1.0773458e-04 4.3191486e-03 0.0000000e+00 
-2.9298843e-04 4.3195973e-03 0.0000000e+00 
2.6876416e-04 4.5724347e-03 0.0000000e+00 
7.8681098e-05 4.5702910e-03 0.0000000e+00 
-1.1138399e-04 4.5694150e-03 0.0000000e+00 
-3.0149090e-04 4.5698065e-03 0.0000000e+00 
2.7469059e-04 4.8292227e-03 0.0000000e+00 
7.9800098e-05 4.8270447e-03 0.0000000e+00 
-1.1507207e-04 4.8261225e-03 0.0000000e+00 
-3.0998680e-04 4.8264557e-03 0.0000000e+00 
2.8048565e-04 5.0923921e-03 0.0000000e+00 
8.0833782e-05 5.0901794e-03 0.0000000e+00 
-1.1879942e-04 5.0892103e-03 0.0000000e+00 
-3.1847588e-04 5.0894844e-03 0.0000000e+00 
2.8614725e-04 5.3618809e-03 0.0000000e+00 
8.1780857e-05 5.3596330e-03 0.0000000e+00 
-1.2256653e-04 5.3586163e-03 0.0000000e+00 
-3.2695785e-04 5.3588305e-03 0.0000000e+00 
2.9167341e-04 5.6376261e-03 0.0000000e+00 
8.2640074e-05 5.6353426e-03 0.0000000e+00 
-1.2637386e-04 5.6342777e-03 0.0000000e+00 
-3.3543242e-04 5.6344311e-03 0.0000000e+00 
2.9706206e-04 5.9195634e-03 0.0000000e+00 
8.3410258e-05 5.9172439e-03 0.0000000e+00 
-1.3022180e-04 5.9161303e-03 0.0000000e+00 
-3.4389912e-04 5.9162220e-03 0.0000000e+00 
3.0231139e-04 6.2076277e-03 0.0000000e+00 
8.4090288e-05 6.2052720e-03 0.0000000e+00 
-1.3411072e-04 6.2041090e-03 0.0000000e+00 
-3.5235759e-04 6.2041385e-03 0.0000000e+00 
3.0741963e-04 6.5017528e-03 0.0000000e+00 
8.4679127e-05 6.4993605e-03 0.0000000e+00 
-1.3804096e-04 6.4981478e-03 0.0000000e+00 
-3.6080747e-04 6.4981143e-03 0.0000000e+00 
3.1238514e-04 6.8018718e-03 0.0000000e+00 
8.5175801e-05 6.7994426e-03 0.0000000e+00 
-1.4201279e-04 6.7981797e-03 0.0000000e+00 
-3.6924834e-04 6.7980826e-03 0.0000000e+00 
3.1720635e-04 7.1079165e-03 0.0000000e+00 
8.5579412e-05 7.1054502e-03 0.0000000e+00 
-1.4602646e-04 7.1041367e-03 0.0000000e+00 
-3.7767981e-04 7.1039754e-03 0.0000000e+00 
3.2188180e-04 7.4198181e-03 0.0000000e+00 
8.5889121e-05 7.4173145e-03 0.0000000e+00 
-1.5008217e-04 7.4159501e-03 0.0000000e+00 
-3.8610144e-04 7.4157242e-03 0.0000000e+00 
3.2641012e-04 7.7375070e-03 0.0000000e+00 
8.6104154e-05 7.7349660e-03 0.0000000e+00 
-1.5418013e-04 7.7335503e-03 0.0000000e+00 
-3.9451280e-04 7.7332593e-03 0.0000000e+00 
3.3079008e-04 8.0609128e-03 0.0000000e+00 
8.6223843e-05 8.0583341e-03 0.0000000e+00 
-1.5832045e-04 8.0568668e-03 0.0000000e+00 
-4.0291351e-04 8.0565103e-03 0.0000000e+00 
3.3502060e-04 8.3899642e-03 0.0000000e+00 
8.6247577e-05 8.3873478e-03 0.0000000e+00 
-1.6250323e-04 8.3858287e-03 0.0000000e+00 
-4.1130317e-04 8.3854063e-03 0.0000000e+00 
3.3910064e-04 8.7245895e-03 0.0000000e+00 
8.6174825e-05 8.7219354e-03 0.0000000e+00 
-1.6672855e-04 8.7203643e-03 0.0000000e+00 
-4.1968138e-04 8.7198756e-03 0.0000000e+00 
3.4302937e-04 9.0647164e-03 0.0000000e+00 
8.6005115e-05 9.0620244e-03 0.0000000e+00 
-1.7099646e-04 9.0604012e-03 0.0000000e+00 
-4.2804775e-04 9.0598460e-03 0.0000000e+00 
3.4680596e-04 9.4102720e-03 0.0000000e+00 
8.5738061e-05 9.4075421e-03 0.0000000e+00 
-1.7530696e-04 9.4058666e-03 0.0000000e+00 
-4.3640195e-04 9.4052447e-03 0.0000000e+00 
3.5042978e-04 9.7611829e-03 0.0000000e+00 
8.5373353e-05 9.7584151e-03 0.0000000e+00 
-1.7966006e-04 9.7566872e-03 0.0000000e+00 
-4.4474356e-04 9.7559985e-03 0.0000000e+00 
3.5390041e-04 1.0117375e-02 0.0000000e+00 
8.4910755e-05 1.0114570e-02 0.0000000e+00 
-1.8405573e-04 1.0112789e-02 0.0000000e+00 
-4.5307246e-04 1.0112034e-02 0.0000000e+00 
3.5721744e-04 1.0478775e-02 0.0000000e+00 
8.4350097e-05 1.0475932e-02 0.0000000e+00 
-1.8849390e-04 1.0474099e-02 0.0000000e+00 
-4.6138830e-04 1.0473276e-02 0.0000000e+00 
3.6038050e-04 1.0845309e-02 0.0000000e+00 
8.3691274e-05 1.0842427e-02 0.0000000e+00 
-1.9297449e-04 1.0840542e-02 0.0000000e+00 
-4.6969075e-04 1.0839652e-02 0.0000000e+00 
3.6338943e-04 1.1216900e-02 0.0000000e+00 
8.2934197e-05 1.1213981e-02 0.0000000e+00 
-1.9749734e-04 1.1212044e-02 0.0000000e+00 
-4.7797951e-04 1.1211087e-02 0.0000000e+00 
3.6624382e-04 1.1593476e-02 0.0000000e+00 
8.2078884e-05 1.1590519e-02 0.0000000e+00 
-2.0206227e-04 1.1588530e-02 0.0000000e+00 
-4.8625409e-04 1.1587506e-02 0.0000000e+00 
3.6894373e-04 1.1974960e-02 0.0000000e+00 
8.1125367e-05 1.1971966e-02 0.0000000e+00 
-2.0666908e-04 1.1969924e-02 0.0000000e+00 
-4.9451420e-04 1.1968834e-02 0.0000000e+00 
3.7148910e-04 1.2361277e-02 0.0000000e+00 
8.0073792e-05 1.2358246e-02 0.0000000e+00 
-2.1131754e-04 1.2356153e-02 0.0000000e+00 
-5.0275953e-04 1.2354995e-02 0.0000000e+00 
3.7388014e-04 1.2752353e-02 0.0000000e+00 
7.8924330e-05 1.2749285e-02 0.0000000e+00 
-2.1600740e-04 1.2747139e-02 0.0000000e+00 
-5.1098978e-04 1.2745915e-02 0.0000000e+00 
3.7611696e-04 1.3148110e-02 0.0000000e+00 
7.7677155e-05 1.3145006e-02 0.0000000e+00 
-2.2073842e-04 1.3142809e-02 0.0000000e+00 
-5.1920458e-04 1.3141518e-02 0.0000000e+00 
3.7819975e-04 1.3548475e-02 0.0000000e+00 
7.6332599e-05 1.3545334e-02 0.0000000e+00 
-2.2551025e-04 1.3543086e-02 0.0000000e+00 
-5.2740360e-04 1.3541729e-02 0.0000000e+00 
3.8012890e-04 1.3953372e-02 0.0000000e+00 
7.4890973e-05 1.3950195e-02 0.0000000e+00 
-2.3032253e-04 1.3947895e-02 0.0000000e+00 
-5.3558647e-04 1.3946473e-02 0.0000000e+00 
3.8190468e-04 1.4362724e-02 0.0000000e+00 
7.3352653e-05 1.4359511e-02 0.0000000e+00 
-2.3517487e-04 1.4357161e-02 0.0000000e+00 
-5.4375274e-04 1.4355673e-02 0.0000000e+00 
3.8352755e-04 1.4776457e-02 0.0000000e+00 
7.1718067e-05 1.4773209e-02 0.0000000e+00 
-2.4006688e-04 1.4770808e-02 0.0000000e+00 
-5.5190198e-04 1.4769255e-02 0.0000000e+00 
3.8499811e-04 1.5194495e-02 0.0000000e+00 
6.9987685e-05 1.5191211e-02 0.0000000e+00 
-2.4499810e-04 1.5188761e-02 0.0000000e+00 
-5.6003395e-04 1.5187143e-02 0.0000000e+00 
3.8631687e-04 1.5616762e-02 0.0000000e+00 
6.8162015e-05 1.5613444e-02 0.0000000e+00 
-2.4996807e-04 1.5610944e-02 0.0000000e+00 
-5.6814813e-04 1.5609261e-02 0.0000000e+00 
3.8748429e-04 1.6043184e-02 0.0000000e+00 
6.6241583e-05 1.6039831e-02 0.0000000e+00 
-2.5497624e-04 1.6037282e-02 0.0000000e+00 
-5.7624393e-04 1.6035535e-02 0.0000000e+00 
3.8850097e-04 1.6473683e-02 0.0000000e+00 
6.4226914e-05 1.6470297e-02 0.0000000e+00 
-2.6002201e-04 1.6467699e-02 0.0000000e+00 
-5.8432077e-04 1.6465889e-02 0.0000000e+00 
3.8936720e-04 1.6908186e-02 0.0000000e+00 
6.2118595e-05 1.6904766e-02 0.0000000e+00 
-2.6510475e-04 1.6902120e-02 0.0000000e+00 
-5.9237782e-04 1.6900247e-02 0.0000000e+00 
3.9008364e-04 1.7346617e-02 0.0000000e+00 
5.9917224e-05 1.7343164e-02 0.0000000e+00 
-2.7022378e-04 1.7340470e-02 0.0000000e+00 
-6.0041442e-04 1.7338534e-02 0.0000000e+00 
3.9065092e-04 1.7788899e-02 0.0000000e+00 
5.7623466e-05 1.7785413e-02 0.0000000e+00 
-2.7537843e-04 1.7782672e-02 0.0000000e+00 
-6.0842982e-04 1.7780674e-02 0.0000000e+00 
3.9106973e-04 1.8234956e-02 0.0000000e+00 
5.5238024e-05 1.8231439e-02 0.0000000e+00 
-2.8056795e-04 1.8228651e-02 0.0000000e+00 
-6.1642329e-04 1.8226591e-02 0.0000000e+00 
3.9134074e-04 1.8684714e-02 0.0000000e+00 
5.2761629e-05 1.8681166e-02 0.0000000e+00 
-2.8579158e-04 1.8678332e-02 0.0000000e+00 
-6.2439403e-04 1.8676211e-02 0.0000000e+00 
3.9146466e-04 1.9138096e-02 0.0000000e+00 
5.0195057e-05 1.9134518e-02 0.0000000e+00 
-2.9104852e-04 1.9131638e-02 0.0000000e+00 
-6.3234124e-04 1.9129456e-02 0.0000000e+00 
3.9144234e-04 1.9595027e-02 0.0000000e+00 
4.7539041e-05 1.9591418e-02 0.0000000e+00 
-2.9633802e-04 1.9588493e-02 0.0000000e+00 
-6.4026405e-04 1.9586252e-02 0.0000000e+00 
3.9127454e-04 2.0055430e-02 0.0000000e+00 
4.4794477e-05 2.0051791e-02 0.0000000e+00 
-3.0165915e-04 2.0048822e-02 0.0000000e+00 
-6.4816159e-04 2.0046522e-02 0.0000000e+00 
3.9096210e-04 2.0519229e-02 0.0000000e+00 
4.1962230e-05 2.0515562e-02 0.0000000e+00 
-3.0701106e-04 2.0512550e-02 0.0000000e+00 
-6.5603299e-04 2.0510190e-02 0.0000000e+00 
3.9050598e-04 2.0986349e-02 0.0000000e+00 
3.9043193e-05 2.0982654e-02 0.0000000e+00 
-3.1239283e-04 2.0979598e-02 0.0000000e+00 
-6.6387730e-04 2.0977181e-02 0.0000000e+00 
3.8990709e-04 2.1456714e-02 0.0000000e+00 
3.6038311e-05 2.1452991e-02 0.0000000e+00 
-3.1780354e-04 2.1449893e-02 0.0000000e+00 
-6.7169365e-04 2.1447419e-02 0.0000000e+00 
3.8916645e-04 2.1930247e-02 0.0000000e+00 
3.2948551e-05 2.1926498e-02 0.0000000e+00 
-3.2324226e-04 2.1923358e-02 0.0000000e+00 
-6.7948111e-04 2.1920827e-02 0.0000000e+00 
3.8828508e-04 2.2406873e-02 0.0000000e+00 
2.9774958e-05 2.2403098e-02 0.0000000e+00 
-3.2870806e-04 2.2399918e-02 0.0000000e+00 
-6.8723876e-04 2.2397331e-02 0.0000000e+00 
3.8726440e-04 2.2886516e-02 0.0000000e+00 
2.6518583e-05 2.2882716e-02 0.0000000e+00 
-3.3419998e-04 2.2879496e-02 0.0000000e+00 
-6.9496597e-04 2.2876854e-02 0.0000000e+00 
3.8610554e-04 2.3369101e-02 0.0000000e+00 
2.3180536e-05 2.3365276e-02 0.0000000e+00 
-3.3971708e-04 2.3362017e-02 0.0000000e+00 
-7.0266184e-04 2.3359321e-02 0.0000000e+00 
3.8480970e-04 2.3854552e-02 0.0000000e+00 
1.9761922e-05 2.3850704e-02 0.0000000e+00 
-3.4525836e-04 2.3847406e-02 0.0000000e+00 
-7.1032549e-04 2.3844657e-02 0.0000000e+00 
3.8337819e-04 2.4342795e-02 0.0000000e+00 
1.6263844e-05 2.4338923e-02 0.0000000e+00 
-3.5082281e-04 2.4335588e-02 0.0000000e+00 
-7.1795610e-04 2.4332786e-02 0.0000000e+00 
3.8181210e-04 2.4833753e-02 0.0000000e+00 
1.2687463e-05 2.4829860e-02 0.0000000e+00 
-3.5640939e-04 2.4826487e-02 0.0000000e+00 
-7.2555254e-04 2.4823634e-02 0.0000000e+00 
3.8011284e-04 2.5327353e-02 0.0000000e+00 
9.0339645e-06 2.5323438e-02 0.0000000e+00 
-3.6201707e-04 2.5320030e-02 0.0000000e+00 
-7.3311403e-04 2.5317126e-02 0.0000000e+00 
3.7828190e-04 2.5823519e-02 0.0000000e+00 
5.3045923e-06 2.5819584e-02 0.0000000e+00 
-3.6764482e-04 2.5816140e-02 0.0000000e+00 
-7.4063978e-04 2.5813187e-02 0.0000000e+00 
3.7632077e-04 2.6322178e-02 0.0000000e+00 
1.5006232e-06 2.6318223e-02 0.0000000e+00 
-3.7329163e-04 2.6314745e-02 0.0000000e+00 
-7.4812906e-04 2.6311742e-02 0.0000000e+00 
3.7423110e-04 2.6823255e-02 0.0000000e+00 
-2.3767049e-06 2.6819281e-02 0.0000000e+00 
-3.7895659e-04 2.6815769e-02 0.0000000e+00 
-7.5558110e-04 2.6812719e-02 0.0000000e+00 
3.7201452e-04 2.7326677e-02 0.0000000e+00 
-6.3259907e-06 2.7322684e-02 0.0000000e+00 
-3.8463862e-04 2.7319140e-02 0.0000000e+00 
-7.6299538e-04 2.7316043e-02 0.0000000e+00 
3.6967286e-04 2.7832370e-02 0.0000000e+00 
-1.0345873e-05 2.7828360e-02 0.0000000e+00 
-3.9033678e-04 2.7824785e-02 0.0000000e+00 
-7.7037131e-04 2.7821642e-02 0.0000000e+00 
3.6720795e-04 2.8340263e-02 0.0000000e+00 
-1.4434948e-05 2.8336237e-02 0.0000000e+00 
-3.9605011e-04 2.8332630e-02 0.0000000e+00 
-7.7770834e-04 2.8329442e-02 0.0000000e+00 
3.6462171e-04 2.8850283e-02 0.0000000e+00 
-1.8591752e-05 2.8846241e-02 0.0000000e+00 
-4.0177771e-04 2.8842605e-02 0.0000000e+00 
-7.8500602e-04 2.8839374e-02 0.0000000e+00 
3.6191639e-04 2.9362361e-02 0.0000000e+00 
-2.2814812e-05 2.9358303e-02 0.0000000e+00 
-4.0751866e-04 2.9354638e-02 0.0000000e+00 
-7.9226426e-04 2.9351364e-02 0.0000000e+00 
3.5909404e-04 2.9876424e-02 0.0000000e+00 
-2.7102627e-05 2.9872352e-02 0.0000000e+00 
-4.1327210e-04 2.9868659e-02 0.0000000e+00 
-7.9948271e-04 2.9865343e-02 0.0000000e+00 
3.5615672e-04 3.0392405e-02 0.0000000e+00 
-3.1453699e-05 3.0388319e-02 0.0000000e+00 
-4.1903713e-04 3.0384599e-02 0.0000000e+00 
-8.0666104e-04 3.0381242e-02 0.0000000e+00 
3.5310663e-04 3.0910233e-02 0.0000000e+00 
-3.5866558e-05 3.0906135e-02 0.0000000e+00 
-4.2481287e-04 3.0902389e-02 0.0000000e+00 
-8.1379909e-04 3.0898993e-02 0.0000000e+00 
3.4994570e-04 3.1429843e-02 0.0000000e+00 
-4.0339679e-05 3.1425733e-02 0.0000000e+00 
-4.3059844e-04 3.1421961e-02 0.0000000e+00 
-8.2089640e-04 3.1418526e-02 0.0000000e+00 
3.4667621e-04 3.1951167e-02 0.0000000e+00 
-4.4871551e-05 3.1947045e-02 0.0000000e+00 
-4.3639300e-04 3.1943249e-02 0.0000000e+00 
-8.2795290e-04 3.1939777e-02 0.0000000e+00 
3.4330054e-04 3.2474139e-02 0.0000000e+00 
-4.9460597e-05 3.2470006e-02 0.0000000e+00 
-4.4219575e-04 3.2466186e-02 0.0000000e+00 
-8.3496859e-04 3.2462677e-02 0.0000000e+00 
3.3982109e-04 3.2998693e-02 0.0000000e+00 
-5.4105213e-05 3.2994550e-02 0.0000000e+00 
-4.4800591e-04 3.2990708e-02 0.0000000e+00 
-8.4194357e-04 3.2987164e-02 0.0000000e+00 
3.3624035e-04 3.3524767e-02 0.0000000e+00 
-5.8803777e-05 3.3520615e-02 0.0000000e+00 
-4.5382273e-04 3.3516750e-02 0.0000000e+00 
-8.4887782e-04 3.3513173e-02 0.0000000e+00 
3.3256080e-04 3.4052298e-02 0.0000000e+00 
-6.3554633e-05 3.4048137e-02 0.0000000e+00 
-4.5964544e-04 3.4044251e-02 0.0000000e+00 
-8.5577173e-04 3.4040641e-02 0.0000000e+00 
3.2878511e-04 3.4581224e-02 0.0000000e+00 
-6.8356320e-05 3.4577055e-02 0.0000000e+00 
-4.6547354e-04 3.4573149e-02 0.0000000e+00 
-8.6262536e-04 3.4569507e-02 0.0000000e+00 
3.2491588e-04 3.5111486e-02 0.0000000e+00 
-7.3207029e-05 3.5107309e-02 0.0000000e+00 
-4.7130618e-04 3.5103384e-02 0.0000000e+00 
-8.6943904e-04 3.5099711e-02 0.0000000e+00 
3.2095570e-04 3.5643025e-02 0.0000000e+00 
-7.8105135e-05 3.5638841e-02 0.0000000e+00 
-4.7714273e-04 3.5634898e-02 0.0000000e+00 
-8.7621326e-04 3.5631195e-02 0.0000000e+00 
3.1690726e-04 3.6175784e-02 0.0000000e+00 
-8.3049044e-05 3.6171593e-02 0.0000000e+00 
-4.8298258e-04 3.6167632e-02 0.0000000e+00 
-8.8294818e-04 3.6163900e-02 0.0000000e+00 
3.1277304e-04 3.6709705e-02 0.0000000e+00 
-8.8037079e-05 3.6705508e-02 0.0000000e+00 
-4.8882514e-04 3.6701531e-02 0.0000000e+00 
-8.8964437e-04 3.6697772e-02 0.0000000e+00 
3.0855612e-04 3.7244737e-02 0.0000000e+00 
-9.3067663e-05 3.7240534e-02 0.0000000e+00 
-4.9466985e-04 3.7236540e-02 0.0000000e+00 
-8.9630238e-04 3.7232754e-02 0.0000000e+00 
3.0425890e-04 3.7780824e-02 0.0000000e+00 
-9.8139159e-05 3.7776616e-02 0.0000000e+00 
-5.0051620e-04 3.7772607e-02 0.0000000e+00 
-9.0292281e-04 3.7768796e-02 0.0000000e+00 
2.9988408e-04 3.8317917e-02 0.0000000e+00 
-1.0325004e-04 3.8313704e-02 0.0000000e+00 
-5.0636366e-04 3.8309680e-02 0.0000000e+00 
-9.0950598e-04 3.8305844e-02 0.0000000e+00 
2.9543413e-04 3.8855962e-02 0.0000000e+00 