# vtk DataFile Version 4.0
vtk output
ASCII
DATASET UNSTRUCTURED_GRID
POINTS 604 float
5.5000000e+00 5.9700000e+00 0.0000000e+00 
5.5000000e+00 5.9900000e+00 0.0000000e+00 
5.5266667e+00 5.9700000e+00 0.0000000e+00 
5.5266667e+00 5.9900000e+00 0.0000000e+00 
5.5000000e+00 6.0100000e+00 0.0000000e+00 
5.5266667e+00 6.0100000e+00 0.0000000e+00 
5.5533333e+00 5.9700000e+00 0.0000000e+00 
5.5533333e+00 5.9900000e+00 0.0000000e+00 
5.5000000e+00 6.0300000e+00 0.0000000e+00 
5.5266667e+00 6.0300000e+00 0.0000000e+00 
5.5533333e+00 6.0100000e+00 0.0000000e+00 
5.5800000e+00 5.9700000e+00 0.0000000e+00 
5.5533333e+00 6.0300000e+00 0.0000000e+00 
5.5800000e+00 5.9900000e+00 0.0000000e+00 
5.5800000e+00 6.0100000e+00 0.0000000e+00 
5.5800000e+00 6.0300000e+00 0.0000000e+00 
5.6066667e+00 5.9700000e+00 0.0000000e+00 
5.6066667e+00 5.9900000e+00 0.0000000e+00 
5.6066667e+00 6.0100000e+00 0.0000000e+00 
5.6066667e+00 6.0300000e+00 0.0000000e+00 
5.6333333e+00 5.9700000e+00 0.0000000e+00 
5.6333333e+00 5.9900000e+00 0.0000000e+00 
5.6333333e+00 6.0100000e+00 0.0000000e+00 
5.6333333e+00 6.0300000e+00 0.0000000e+00 
5.6600000e+00 5.9700000e+00 0.0000000e+00 
5.6600000e+00 5.9900000e+00 0.0000000e+00 
5.6600000e+00 6.0100000e+00 0.0000000e+00 
5.6600000e+00 6.0300000e+00 0.0000000e+00 
5.6866667e+00 5.9700000e+00 0.0000000e+00 
5.6866667e+00 5.9900000e+00 0.0000000e+00 
5.6866667e+00 6.0100000e+00 0.0000000e+00 
5.6866667e+00 6.0300000e+00 0.0000000e+00 
5.7133333e+00 5.9700000e+00 0.0000000e+00 
5.7133333e+00 5.9900000e+00 0.0000000e+00 
5.7133333e+00 6.0100000e+00 0.0000000e+00 
5.7133333e+00 6.0300000e+00 0.0000000e+00 
5.7400000e+00 5.9700000e+00 0.0000000e+00 
5.7400000e+00 5.9900000e+00 0.0000000e+00 
5.7400000e+00 6.0100000e+00 0.0000000e+00 
5.7400000e+00 6.0300000e+00 0.0000000e+00 
5.7666667e+00 5.9700000e+00 0.0000000e+00 
5.7666667e+00 5.9900000e+00 0.0000000e+00 
5.7666667e+00 6.0100000e+00 0.0000000e+00 
5.7666667e+00 6.0300000e+00 0.0000000e+00 
5.7933333e+00 5.9700000e+00 0.0000000e+00 
5.7933333e+00 5.9900000e+00 0.0000000e+00 
5.7933333e+00 6.0100000e+00 0.0000000e+00 
5.7933333e+00 6.0300000e+00 0.0000000e+00 
5.8200000e+00 5.9700000e+00 0.0000000e+00 
5.8200000e+00 5.9900000e+00 0.0000000e+00 
5.8200000e+00 6.0100000e+00 0.0000000e+00 
5.8200000e+00 6.0300000e+00 0.0000000e+00 
5.8466667e+00 5.9700000e+00 0.0000000e+00 
5.8466667e+00 5.9900000e+00 0.0000000e+00 
5.8466667e+00 6.0100000e+00 0.0000000e+00 
5.8466667e+00 6.0300000e+00 0.0000000e+00 
5.8733333e+00 5.9700000e+00 0.0000000e+00 
5.8733333e+00 5.9900000e+00 0.0000000e+00 
5.8733333e+00 6.0100000e+00 0.0000000e+00 
5.8733333e+00 6.0300000e+00 0.0000000e+00 
5.9000000e+00 5.9700000e+00 0.0000000e+00 
5.9000000e+00 5.9900000e+00 0.0000000e+00 
5.9000000e+00 6.0100000e+00 0.0000000e+00 
5.9000000e+00 6.0300000e+00 0.0000000e+00 
5.9266667e+00 5.9700000e+00 0.0000000e+00 
5.9266667e+00 5.9900000e+00 0.0000000e+00 
5.9266667e+00 6.0100000e+00 0.0000000e+00 
5.9266667e+00 6.0300000e+00 0.0000000e+00 
5.9533333e+00 5.9700000e+00 0.0000000e+00 
5.9533333e+00 5.9900000e+00 0.0000000e+00 
5.9533333e+00 6.0100000e+00 0.0000000e+00 
5.9533333e+00 6.0300000e+00 0.0000000e+00 
5.9800000e+00 5.9700000e+00 0.0000000e+00 
5.9800000e+00 5.9900000e+00 0.0000000e+00 
5.9800000e+00 6.0100000e+00 0.0000000e+00 
5.9800000e+00 6.0300000e+00 0.0000000e+00 
6.0066667e+00 5.9700000e+00 0.0000000e+00 
6.0066667e+00 5.9900000e+00 0.0000000e+00 
6.0066667e+00 6.0100000e+00 0.0000000e+00 
6.0066667e+00 6.0300000e+00 0.0000000e+00 
6.0333333e+00 5.9700000e+00 0.0000000e+00 
6.0333333e+00 5.9900000e+00 0.0000000e+00 
6.0333333e+00 6.0100000e+00 0.0000000e+00 
6.0333333e+00 6.0300000e+00 0.0000000e+00 
6.0600000e+00 5.9700000e+00 0.0000000e+00 
6.0600000e+00 5.9900000e+00 0.0000000e+00 
6.0600000e+00 6.0100000e+00 0.0000000e+00 
6.0600000e+00 6.0300000e+00 0.0000000e+00 
6.0866667e+00 5.9700000e+00 0.0000000e+00 
6.0866667e+00 5.9900000e+00 0.0000000e+00 
6.0866667e+00 6.0100000e+00 0.0000000e+00 
6.0866667e+00 6.0300000e+00 0.0000000e+00 
6.1133333e+00 5.9700000e+00 0.0000000e+00 
6.1133333e+00 5.9900000e+00 0.0000000e+00 
6.1133333e+00 6.0100000e+00 0.0000000e+00 
6.1133333e+00 6.0300000e+00 0.0000000e+00 
6.1400000e+00 5.9700000e+00 0.0000000e+00 
6.1400000e+00 5.9900000e+00 0.0000000e+00 
6.1400000e+00 6.0100000e+00 0.0000000e+00 
6.1400000e+00 6.0300000e+00 0.0000000e+00 
6.1666667e+00 5.9700000e+00 0.0000000e+00 
6.1666667e+00 5.9900000e+00 0.0000000e+00 
6.1666667e+00 6.0100000e+00 0.0000000e+00 
6.1666667e+00 6.0300000e+00 0.0000000e+00 
6.1933333e+00 5.9700000e+00 0.0000000e+00 
6.1933333e+00 5.9900000e+00 0.0000000e+00 
6.1933333e+00 6.0100000e+00 0.0000000e+00 
6.1933333e+00 6.0300000e+00 0.0000000e+00 
6.2200000e+00 5.9700000e+00 0.0000000e+00 
6.2200000e+00 5.9900000e+00 0.0000000e+00 
6.2200000e+00 6.0100000e+00 0.0000000e+00 
6.2200000e+00 6.0300000e+00 0.0000000e+00 
6.2466667e+00 5.9700000e+00 0.0000000e+00 
6.2466667e+00 5.9900000e+00 0.0000000e+00 
6.2466667e+00 6.0100000e+00 0.0000000e+00 
6.2466667e+00 6.0300000e+00 0.0000000e+00 
6.2733333e+00 5.9700000e+00 0.0000000e+00 
6.2733333e+00 5.9900000e+00 0.0000000e+00 
6.2733333e+00 6.0100000e+00 0.0000000e+00 
6.2733333e+00 6.0300000e+00 0.0000000e+00 
6.3000000e+00 5.9700000e+00 0.0000000e+00 
6.3000000e+00 5.9900000e+00 0.0000000e+00 
6.3000000e+00 6.0100000e+00 0.0000000e+00 
6.3000000e+00 6.0300000e+00 0.0000000e+00 
6.3266667e+00 5.9700000e+00 0.0000000e+00 
6.3266667e+00 5.9900000e+00 0.0000000e+00 
6.3266667e+00 6.0100000e+00 0.0000000e+00 
6.3266667e+00 6.0300000e+00 0.0000000e+00 
6.3533333e+00 5.9700000e+00 0.0000000e+00 
6.3533333e+00 5.9900000e+00 0.0000000e+00 
6.3533333e+00 6.0100000e+00 0.0000000e+00 
6.3533333e+00 6.0300000e+00 0.0000000e+00 
6.3800000e+00 5.9700000e+00 0.0000000e+00 
6.3800000e+00 5.9900000e+00 0.0000000e+00 
6.3800000e+00 6.0100000e+00 0.0000000e+00 
6.3800000e+00 6.0300000e+00 0.0000000e+00 
6.4066667e+00 5.9700000e+00 0.0000000e+00 
6.4066667e+00 5.9900000e+00 0.0000000e+00 
6.4066667e+00 6.0100000e+00 0.0000000e+00 
6.4066667e+00 6.0300000e+00 0.0000000e+00 
6.4333333e+00 5.9700000e+00 0.0000000e+00 
6.4333333e+00 5.9900000e+00 0.0000000e+00 
6.4333333e+00 6.0100000e+00 0.0000000e+00 
6.4333333e+00 6.0300000e+00 0.0000000e+00 
6.4600000e+00 5.9700000e+00 0.0000000e+00 
6.4600000e+00 5.9900000e+00 0.0000000e+00 
6.4600000e+00 6.0100000e+00 0.0000000e+00 
6.4600000e+00 6.0300000e+00 0.0000000e+00 
6.4866667e+00 5.9700000e+00 0.0000000e+00 
6.4866667e+00 5.9900000e+00 0.0000000e+00 
6.4866667e+00 6.0100000e+00 0.0000000e+00 
6.4866667e+00 6.0300000e+00 0.0000000e+00 
6.5133333e+00 5.9700000e+00 0.0000000e+00 
6.5133333e+00 5.9900000e+00 0.0000000e+00 
6.5133333e+00 6.0100000e+00 0.0000000e+00 
6.5133333e+00 6.0300000e+00 0.0000000e+00 
6.5400000e+00 5.9700000e+00 0.0000000e+00 
6.5400000e+00 5.9900000e+00 0.0000000e+00 
6.5400000e+00 6.0100000e+00 0.0000000e+00 
6.5400000e+00 6.0300000e+00 0.0000000e+00 
6.5666667e+00 5.9700000e+00 0.0000000e+00 
6.5666667e+00 5.9900000e+00 0.0000000e+00 
6.5666667e+00 6.0100000e+00 0.0000000e+00 
6.5666667e+00 6.0300000e+00 0.0000000e+00 
6.5933333e+00 5.9700000e+00 0.0000000e+00 
6.5933333e+00 5.9900000e+00 0.0000000e+00 
6.5933333e+00 6.0100000e+00 0.0000000e+00 
6.5933333e+00 6.0300000e+00 0.0000000e+00 
6.6200000e+00 5.9700000e+00 0.0000000e+00 
6.6200000e+00 5.9900000e+00 0.0000000e+00 
6.6200000e+00 6.0100000e+00 0.0000000e+00 
6.6200000e+00 6.0300000e+00 0.0000000e+00 
6.6466667e+00 5.9700000e+00 0.0000000e+00 
6.6466667e+00 5.9900000e+00 0.0000000e+00 
6.6466667e+00 6.0100000e+00 0.0000000e+00 
6.6466667e+00 6.0300000e+00 0.0000000e+00 
6.6733333e+00 5.9700000e+00 0.0000000e+00 
6.6733333e+00 5.9900000e+00 0.0000000e+00 
6.6733333e+00 6.0100000e+00 0.0000000e+00 
6.6733333e+00 6.0300000e+00 0.0000000e+00 
6.7000000e+00 5.9700000e+00 0.0000000e+00 
6.7000000e+00 5.9900000e+00 0.0000000e+00 
6.7000000e+00 6.0100000e+00 0.0000000e+00 
6.7000000e+00 6.0300000e+00 0.0000000e+00 
6.7266667e+00 5.9700000e+00 0.0000000e+00 
6.7266667e+00 5.9900000e+00 0.0000000e+00 
6.7266667e+00 6.0100000e+00 0.0000000e+00 
6.7266667e+00 6.0300000e+00 0.0000000e+00 
6.7533333e+00 5.9700000e+00 0.0000000e+00 
6.7533333e+00 5.9900000e+00 0.0000000e+00 
6.7533333e+00 6.0100000e+00 0.0000000e+00 
6.7533333e+00 6.0300000e+00 0.0000000e+00 
6.7800000e+00 5.9700000e+00 0.0000000e+00 
6.7800000e+00 5.9900000e+00 0.0000000e+00 
6.7800000e+00 6.0100000e+00 0.0000000e+00 
6.7800000e+00 6.0300000e+00 0.0000000e+00 
6.8066667e+00 5.9700000e+00 0.0000000e+00 
6.8066667e+00 5.9900000e+00 0.0000000e+00 
6.8066667e+00 6.0100000e+00 0.0000000e+00 
6.8066667e+00 6.0300000e+00 0.0000000e+00 
6.8333333e+00 5.9700000e+00 0.0000000e+00 
6.8333333e+00 5.9900000e+00 0.0000000e+00 
6.8333333e+00 6.0100000e+00 0.0000000e+00 
6.8333333e+00 6.0300000e+00 0.0000000e+00 
6.8600000e+00 5.9700000e+00 0.0000000e+00 
6.8600000e+00 5.9900000e+00 0.0000000e+00 
6.8600000e+00 6.0100000e+00 0.0000000e+00 
6.8600000e+00 6.0300000e+00 0.0000000e+00 
6.8866667e+00 5.9700000e+00 0.0000000e+00 
6.8866667e+00 5.9900000e+00 0.0000000e+00 
6.8866667e+00 6.0100000e+00 0.0000000e+00 
6.8866667e+00 6.0300000e+00 0.0000000e+00 
6.9133333e+00 5.9700000e+00 0.0000000e+00 
6.9133333e+00 5.9900000e+00 0.0000000e+00 
6.9133333e+00 6.0100000e+00 0.0000000e+00 
6.9133333e+00 6.0300000e+00 0.0000000e+00 
6.9400000e+00 5.9700000e+00 0.0000000e+00 
6.9400000e+00 5.9900000e+00 0.0000000e+00 
6.9400000e+00 6.0100000e+00 0.0000000e+00 
6.9400000e+00 6.0300000e+00 0.0000000e+00 
6.9666667e+00 5.9700000e+00 0.0000000e+00 
6.9666667e+00 5.9900000e+00 0.0000000e+00 
6.9666667e+00 6.0100000e+00 0.0000000e+00 
6.9666667e+00 6.0300000e+00 0.0000000e+00 
6.9933333e+00 5.9700000e+00 0.0000000e+00 
6.9933333e+00 5.9900000e+00 0.0000000e+00 
6.9933333e+00 6.0100000e+00 0.0000000e+00 
6.9933333e+00 6.0300000e+00 0.0000000e+00 
7.0200000e+00 5.9700000e+00 0.0000000e+00 
7.0200000e+00 5.9900000e+00 0.0000000e+00 
[...]
POINT_DATA 604
FIELD FieldData 2
DISPLACEMENT 3 604  float
0.0000000e+00 0.0000000e+00 0.0000000e+00 
0.0000000e+00 0.0000000e+00 0.0000000e+00 
5.7005495e-06 5.2451103e-06 0.0000000e+00 
1.6929520e-06 4.2258220e-06 0.0000000e+00 
0.0000000e+00 0.0000000e+00 0.0000000e+00 
-1.2194565e-06 4.1793515e-06 0.0000000e+00 
9.5418669e-06 1.3418555e-05 0.0000000e+00 
3.2483524e-06 1.2908085e-05 0.0000000e+00 
0.0000000e+00 0.0000000e+00 0.0000000e+00 
-5.1947175e-06 5.0905285e-06 0.0000000e+00 
-2.2582852e-06 1.2852348e-05 0.0000000e+00 
1.1550890e-05 2.4069175e-05 0.0000000e+00 
-8.5474129e-06 1.3259209e-05 0.0000000e+00 
4.0800943e-06 2.3860539e-05 0.0000000e+00 
-2.5823343e-06 2.3808375e-05 0.0000000e+00 
-1.0054043e-05 2.3911469e-05 0.0000000e+00 
1.1730919e-05 3.5422768e-05 0.0000000e+00 
4.3140078e-06 3.5533510e-05 0.0000000e+00 
-2.3122329e-06 3.5481610e-05 0.0000000e+00 
-9.7286633e-06 3.5266481e-05 0.0000000e+00 
1.0116546e-05 4.5884208e-05 0.0000000e+00 
3.9484403e-06 4.6306396e-05 0.0000000e+00 
-1.4424502e-06 4.6254872e-05 0.0000000e+00 
-7.6091788e-06 4.5729109e-05 0.0000000e+00 
6.7400664e-06 5.3870811e-05 0.0000000e+00 
2.9960524e-06 5.4599250e-05 0.0000000e+00 
1.5158957e-08 5.4548177e-05 0.0000000e+00 
-3.7272924e-06 5.3717454e-05 0.0000000e+00 
1.6336832e-06 5.7831240e-05 0.0000000e+00 
1.4672690e-06 5.8860043e-05 0.0000000e+00 
2.0498511e-06 5.8809169e-05 0.0000000e+00 
1.8848957e-06 5.7678881e-05 0.0000000e+00 
-5.1714948e-06 5.6242752e-05 0.0000000e+00 
-6.2798404e-07 5.7565444e-05 0.0000000e+00 
4.6501545e-06 5.7513857e-05 0.0000000e+00 
9.1946241e-06 5.6088695e-05 0.0000000e+00 
-1.3645080e-05 4.7611279e-05 0.0000000e+00 
-3.2807498e-06 4.9220621e-05 0.0000000e+00 
7.8036310e-06 4.9166623e-05 0.0000000e+00 
1.8168194e-05 4.7450641e-05 0.0000000e+00 
-2.3757931e-05 3.0471661e-05 0.0000000e+00 
-6.4832145e-06 3.2359384e-05 0.0000000e+00 
1.1496728e-05 3.2300334e-05 0.0000000e+00 
2.8770191e-05 3.0296462e-05 0.0000000e+00 
-3.5482160e-05 3.3873312e-06 0.0000000e+00 
-1.0228931e-05 5.5441656e-06 0.0000000e+00 
1.5714302e-05 5.4763506e-06 0.0000000e+00 
4.0964643e-05 3.1866829e-06 0.0000000e+00 
-4.8791343e-05 -3.5049040e-05 0.0000000e+00 
-1.4513020e-05 -3.2633765e-05 0.0000000e+00 
2.0439844e-05 -3.2715375e-05 0.0000000e+00 
5.4712489e-05 -3.5290257e-05 0.0000000e+00 
-6.3660931e-05 -8.6216304e-05 0.0000000e+00 
-1.9332346e-05 -8.3554393e-05 0.0000000e+00 
2.5654917e-05 -8.3656072e-05 0.0000000e+00 
6.9974521e-05 -8.6516729e-05 0.0000000e+00 
-8.0068390e-05 -1.5146402e-04 0.0000000e+00 
-2.4685713e-05 -1.4856900e-04 0.0000000e+00 
3.1339413e-05 -1.4869863e-04 0.0000000e+00 
8.6708693e-05 -1.5184737e-04 0.0000000e+00 
-9.7993264e-05 -2.3211378e-04 0.0000000e+00 
-3.0573993e-05 -2.2900048e-04 0.0000000e+00 
3.7471040e-05 -2.2916734e-04 0.0000000e+00 
1.0487187e-04 -2.3260782e-04 0.0000000e+00 
-1.1741726e-04 -3.2945797e-04 0.0000000e+00 
-3.7000307e-05 -3.2614307e-04 0.0000000e+00 
4.4025348e-05 -3.2635830e-04 0.0000000e+00 
1.2441801e-04 -3.3009595e-04 0.0000000e+00 
-1.3832448e-04 -4.4476034e-04 0.0000000e+00 
-4.3969988e-05 -4.4126243e-04 0.0000000e+00 
5.0975720e-05 -4.4153895e-04 0.0000000e+00 
1.4529879e-04 -4.4558119e-04 0.0000000e+00 
-1.6070156e-04 -5.7925686e-04 0.0000000e+00 
-5.1490873e-05 -5.7559599e-04 0.0000000e+00 
5.8293016e-05 -5.7594844e-04 0.0000000e+00 
1.6746441e-04 -5.8030424e-04 0.0000000e+00 
-1.8453771e-04 -7.3415417e-04 0.0000000e+00 
-5.9573320e-05 -7.3035271e-04 0.0000000e+00 
6.5945793e-05 -7.3079784e-04 0.0000000e+00 
1.9086169e-04 -7.3547841e-04 0.0000000e+00 
-2.0982492e-04 -9.1063174e-04 0.0000000e+00 
-6.8230373e-05 -9.0671347e-04 0.0000000e+00 
7.3900139e-05 -9.0726976e-04 0.0000000e+00 
2.1543559e-04 -9.1228811e-04 0.0000000e+00 
-2.3655849e-04 -1.1098401e-03 0.0000000e+00 
-7.7477760e-05 -1.1058313e-03 0.0000000e+00 
8.2119493e-05 -1.1065194e-03 0.0000000e+00 
2.4112978e-04 -1.1118909e-03 0.0000000e+00 
-2.6473604e-04 -1.3329034e-03 0.0000000e+00 
-8.7333927e-05 -1.3288321e-03 0.0000000e+00 
9.0564643e-05 -1.3296747e-03 0.0000000e+00 
2.6788402e-04 -1.3354163e-03 0.0000000e+00 
-2.9435769e-04 -1.5809169e-03 0.0000000e+00 
-9.7820111e-05 -1.5768134e-03 0.0000000e+00 
9.9193523e-05 -1.5778352e-03 0.0000000e+00 
2.9563489e-04 -1.5839664e-03 0.0000000e+00 
-3.2542661e-04 -1.8549487e-03 0.0000000e+00 
-1.0896025e-04 -1.8508453e-03 0.0000000e+00 
1.0796091e-04 -1.8520731e-03 0.0000000e+00 
3.2431725e-04 -1.8586149e-03 0.0000000e+00 
-3.5794815e-04 -2.1560378e-03 0.0000000e+00 
-1.2078120e-04 -2.1519692e-03 0.0000000e+00 
1.1681908e-04 -2.1534321e-03 0.0000000e+00 
3.5386030e-04 -2.1604081e-03 0.0000000e+00 
-3.9193123e-04 -2.4851960e-03 0.0000000e+00 
-1.3331259e-04 -2.4811985e-03 0.0000000e+00 
1.2571719e-04 -2.4829274e-03 0.0000000e+00 
3.8419339e-04 -2.4903631e-03 0.0000000e+00 
-4.2738744e-04 -2.8434061e-03 0.0000000e+00 
-1.4658704e-04 -2.8395185e-03 0.0000000e+00 
1.3460196e-04 -2.8415468e-03 0.0000000e+00 
4.1524194e-04 -2.8494701e-03 0.0000000e+00 
-4.6433164e-04 -3.2316244e-03 0.0000000e+00 
-1.6063992e-04 -3.2278874e-03 0.0000000e+00 
1.4341716e-04 -3.2302502e-03 0.0000000e+00 
4.4692955e-04 -3.2386909e-03 0.0000000e+00 
-5.0278123e-04 -3.6507787e-03 0.0000000e+00 
-1.7550951e-04 -3.6472353e-03 0.0000000e+00 
1.5210397e-04 -3.6499701e-03 0.0000000e+00 
4.7917612e-04 -3.6589603e-03 0.0000000e+00 
-5.4275676e-04 -4.1017701e-03 0.0000000e+00 
-1.9123683e-04 -4.0984650e-03 0.0000000e+00 
1.6060061e-04 -4.1016113e-03 0.0000000e+00 
5.1189982e-04 -4.1111848e-03 0.0000000e+00 
-5.8428129e-04 -4.5854716e-03 0.0000000e+00 
-2.0786575e-04 -4.5824518e-03 0.0000000e+00 
1.6884259e-04 -4.5860510e-03 0.0000000e+00 
5.4501532e-04 -4.5962441e-03 0.0000000e+00 
-6.2738059e-04 -5.1027287e-03 0.0000000e+00 
-2.2544271e-04 -5.1000434e-03 0.0000000e+00 
1.7676288e-04 -5.1041391e-03 0.0000000e+00 
5.7843457e-04 -5.1149901e-03 0.0000000e+00 
-6.7208350e-04 -5.6543602e-03 0.0000000e+00 
-2.4401690e-04 -5.6520600e-03 0.0000000e+00 
1.8429169e-04 -5.6566977e-03 0.0000000e+00 
6.1206789e-04 -5.6682464e-03 0.0000000e+00 
-7.1842119e-04 -6.2411568e-03 0.0000000e+00 
-2.6364010e-04 -6.2392947e-03 0.0000000e+00 
1.9135686e-04 -6.2445219e-03 0.0000000e+00 
6.4582205e-04 -6.2568107e-03 0.0000000e+00 
-7.6642785e-04 -6.8638830e-03 0.0000000e+00 
-2.8436675e-04 -6.8625132e-03 0.0000000e+00 
1.9788398e-04 -6.8683791e-03 0.0000000e+00 
6.7960191e-04 -6.8814518e-03 0.0000000e+00 
-8.1614096e-04 -7.5232759e-03 0.0000000e+00 
-3.0625375e-04 -7.5224550e-03 0.0000000e+00 
2.0379608e-04 -7.5290107e-03 0.0000000e+00 
7.1331272e-04 -7.5429134e-03 0.0000000e+00 
-8.6759970e-04 -8.2200473e-03 0.0000000e+00 
-3.2936035e-04 -8.2198334e-03 0.0000000e+00 
2.0901397e-04 -8.2271317e-03 0.0000000e+00 
7.4685456e-04 -8.2419118e-03 0.0000000e+00 
-9.2084480e-04 -8.9548817e-03 0.0000000e+00 
-3.5374805e-04 -8.9553347e-03 0.0000000e+00 
2.1345590e-04 -8.9634300e-03 0.0000000e+00 
7.8012487e-04 -8.9791370e-03 0.0000000e+00 
-9.7591959e-04 -9.7284367e-03 0.0000000e+00 
-3.7948030e-04 -9.7296181e-03 0.0000000e+00 
2.1703739e-04 -9.7385664e-03 0.0000000e+00 
8.1302020e-04 -9.7552504e-03 0.0000000e+00 
-1.0328679e-03 -1.0541342e-02 0.0000000e+00 
-4.0662272e-04 -1.0543314e-02 0.0000000e+00 
2.1967231e-04 -1.0553173e-02 0.0000000e+00 
8.4543044e-04 -1.0570887e-02 0.0000000e+00 
-1.0917370e-03 -1.1394198e-02 0.0000000e+00 
-4.3524271e-04 -1.1397027e-02 0.0000000e+00 
2.2127219e-04 -1.1407855e-02 0.0000000e+00 
8.7724818e-04 -1.1426651e-02 0.0000000e+00 
-1.1525754e-03 -1.2287582e-02 0.0000000e+00 
-4.6540972e-04 -1.2291332e-02 0.0000000e+00 
2.2174730e-04 -1.2303190e-02 0.0000000e+00 
9.0836269e-04 -1.2323123e-02 0.0000000e+00 
-1.2154341e-03 -1.3222039e-02 0.0000000e+00 
-4.9719476e-04 -1.3226777e-02 0.0000000e+00 
2.2100605e-04 -1.3239726e-02 0.0000000e+00 
9.3866259e-04 -1.3260853e-02 0.0000000e+00 
-1.2803649e-03 -1.4198090e-02 0.0000000e+00 
-5.3067044e-04 -1.4203884e-02 0.0000000e+00 
2.1895548e-04 -1.4217987e-02 0.0000000e+00 
9.6803384e-04 -1.4240365e-02 0.0000000e+00 
-1.3474214e-03 -1.5216228e-02 0.0000000e+00 
-5.6591074e-04 -1.5223148e-02 0.0000000e+00 
2.1550102e-04 -1.5238468e-02 0.0000000e+00 
9.9636202e-04 -1.5262155e-02 0.0000000e+00 
-1.4166582e-03 -1.6276920e-02 0.0000000e+00 
-6.0299096e-04 -1.6285035e-02 0.0000000e+00 
2.1054677e-04 -1.6301637e-02 0.0000000e+00 
1.0235305e-03 -1.6326692e-02 0.0000000e+00 
-1.4881309e-03 -1.7380604e-02 0.0000000e+00 
-6.4198735e-04 -1.7389985e-02 0.0000000e+00 
2.0399587e-04 -1.7407934e-02 0.0000000e+00 
1.0494213e-03 -1.7434417e-02 0.0000000e+00 
-1.5618960e-03 -1.8527692e-02 0.0000000e+00 
-6.8297715e-04 -1.8538410e-02 0.0000000e+00 
1.9575034e-04 -1.8557771e-02 0.0000000e+00 
1.0739164e-03 -1.8585744e-02 0.0000000e+00 
-1.6380108e-03 -1.9718567e-02 0.0000000e+00 
-7.2603846e-04 -1.9730694e-02 0.0000000e+00 
1.8571151e-04 -1.9751535e-02 0.0000000e+00 
1.0968959e-03 -1.9781057e-02 0.0000000e+00 
-1.7165335e-03 -2.0953586e-02 0.0000000e+00 
-7.7124990e-04 -2.0967194e-02 0.0000000e+00 
1.7377994e-04 -2.0989581e-02 0.0000000e+00 
1.1182405e-03 -2.1020714e-02 0.0000000e+00 
-1.7975221e-03 -2.2233078e-02 0.0000000e+00 
-8.1869057e-04 -2.2248240e-02 0.0000000e+00 
1.5985588e-04 -2.2272240e-02 0.0000000e+00 
1.1378288e-03 -2.2305046e-02 0.0000000e+00 
-1.8810358e-03 -2.3557344e-02 0.0000000e+00 
-8.6844011e-04 -2.3574133e-02 0.0000000e+00 
1.4383978e-04 -2.3599814e-02 0.0000000e+00 
1.1555400e-03 -2.3634355e-02 0.0000000e+00 
-1.9671353e-03 -2.4926660e-02 0.0000000e+00 
-9.2057824e-04 -2.4945149e-02 0.0000000e+00 
1.2563157e-04 -2.4972577e-02 0.0000000e+00 
1.1712575e-03 -2.5008916e-02 0.0000000e+00 
-2.0558797e-03 -2.6341275e-02 0.0000000e+00 
-9.7518474e-04 -2.6361536e-02 0.0000000e+00 
1.0513150e-04 -2.6390780e-02 0.0000000e+00 
1.1848598e-03 -2.6428978e-02 0.0000000e+00 
-2.1473274e-03 -2.7801412e-02 0.0000000e+00 
-1.0323390e-03 -2.7823518e-02 0.0000000e+00 
8.2239464e-05 -2.7854644e-02 0.0000000e+00 
1.1962260e-03 -2.7894763e-02 0.0000000e+00 
-2.2415364e-03 -2.9307264e-02 0.0000000e+00 
-1.0921198e-03 -2.9331287e-02 0.0000000e+00 
5.6854949e-05 -2.9364363e-02 0.0000000e+00 
1.2052365e-03 -2.9406464e-02 0.0000000e+00 
-2.3385619e-03 -3.0858998e-02 0.0000000e+00 
-1.1546053e-03 -3.0885010e-02 0.0000000e+00 
2.8878651e-05 -3.0920101e-02 0.0000000e+00 
1.2117657e-03 -3.0964245e-02 0.0000000e+00 
-2.4384604e-03 -3.2456750e-02 0.0000000e+00 
-1.2198726e-03 -3.2484822e-02 0.0000000e+00 
-1.7884453e-06 -3.2521993e-02 0.0000000e+00 
1.2156956e-03 -3.2568239e-02 0.0000000e+00 
-2.5412871e-03 -3.4100628e-02 0.0000000e+00 
-1.2879982e-03 -3.4130830e-02 0.0000000e+00 
-3.5243629e-05 -3.4170146e-02 0.0000000e+00 
1.2169076e-03 -3.4218554e-02 0.0000000e+00 
-2.6470962e-03 -3.5790713e-02 0.0000000e+00 
-1.3590572e-03 -3.5823115e-02 0.0000000e+00 
-7.1583027e-05 -3.5864640e-02 0.0000000e+00 
1.2152851e-03 -3.5915267e-02 0.0000000e+00 
-2.7559404e-03 -3.7527060e-02 0.0000000e+00 
-1.4331235e-03 -3.7561729e-02 0.0000000e+00 
-1.1090146e-04 -3.7605525e-02 0.0000000e+00 
1.2107121e-03 -3.7658429e-02 0.0000000e+00 
-2.8678707e-03 -3.9309694e-02 0.0000000e+00 
-1.5102691e-03 -3.9346697e-02 0.0000000e+00 
-1.5329199e-04 -3.9392825e-02 0.0000000e+00 
1.2030744e-03 -3.9448061e-02 0.0000000e+00 
-2.9829366e-03 -4.1138611e-02 0.0000000e+00 
-1.5905644e-03 -4.1178014e-02 0.0000000e+00 
-1.9884608e-04 -4.1226534e-02 0.0000000e+00 
1.1922600e-03 -4.1284157e-02 0.0000000e+00 
-3.1011855e-03 -4.3013782e-02 0.0000000e+00 
-1.6740778e-03 -4.3055649e-02 0.0000000e+00 
-2.4765305e-04 -4.3106620e-02 0.0000000e+00 
1.1781580e-03 -4.3166683e-02 0.0000000e+00 
-3.2226628e-03 -4.4935150e-02 0.0000000e+00 
-1.7608758e-03 -4.4979542e-02 0.0000000e+00 
-2.9979934e-04 -4.5033020e-02 0.0000000e+00 
1.1606599e-03 -4.5095574e-02 0.0000000e+00 
-3.3474143e-03 -4.6902630e-02 0.0000000e+00 
-1.8510226e-03 -4.6949607e-02 0.0000000e+00 
-3.5536959e-04 -4.7005648e-02 0.0000000e+00 
1.1396656e-03 -4.7070743e-02 0.0000000e+00 
-3.4754811e-03 -4.8916112e-02 0.0000000e+00 
-1.9445801e-03 -4.8965734e-02 0.0000000e+00 
-4.1444543e-04 -4.9024389e-02 0.0000000e+00 
1.1150711e-03 -4.9092073e-02 0.0000000e+00 
-3.6069009e-03 -5.0975460e-02 0.0000000e+00 
-2.0416072e-03 -5.1027782e-02 0.0000000e+00 
-4.7710666e-04 -5.1089103e-02 0.0000000e+00 
1.0867764e-03 -5.1159421e-02 0.0000000e+00 
-3.7417085e-03 -5.3080508e-02 0.0000000e+00 
-2.1421596e-03 -5.3135584e-02 0.0000000e+00 
-5.4343087e-04 -5.3199621e-02 0.0000000e+00 
1.0546846e-03 -5.3272616e-02 0.0000000e+00 
-3.8799336e-03 -5.5231061e-02 0.0000000e+00 
-2.2462900e-03 -5.5288945e-02 0.0000000e+00 
-6.1349197e-04 -5.5355742e-02 0.0000000e+00 
1.0186946e-03 -5.5431454e-02 0.0000000e+00 
-4.0216046e-03 -5.7426897e-02 0.0000000e+00 
-2.3540477e-03 -5.7487637e-02 0.0000000e+00 
-6.8736099e-04 -5.7557238e-02 0.0000000e+00 
9.7871659e-04 -5.7635706e-02 0.0000000e+00 
-4.1667469e-03 -5.9667765e-02 0.0000000e+00 
-2.4654787e-03 -5.9731406e-02 0.0000000e+00 
-7.6510457e-04 -5.9803852e-02 0.0000000e+00 
9.3466340e-04 -5.9885111e-02 0.0000000e+00 
-4.3153827e-03 -6.1953387e-02 0.0000000e+00 
-2.5806256e-03 -6.2019973e-02 0.0000000e+00 
-8.4678563e-04 -6.2095302e-02 0.0000000e+00 
8.8645185e-04 -6.2179385e-02 0.0000000e+00 
-4.4675305e-03 -6.4283456e-02 0.0000000e+00 
-2.6995272e-03 -6.4353029e-02 0.0000000e+00 
-9.3246318e-04 -6.4431276e-02 0.0000000e+00 
8.3400270e-04 -6.4518212e-02 0.0000000e+00 
-4.6232053e-03 -6.6657644e-02 0.0000000e+00 
-2.8222184e-03 -6.6730239e-02 0.0000000e+00 
-1.0221921e-03 -6.6811437e-02 0.0000000e+00 
7.7724094e-04 -6.6901254e-02 0.0000000e+00 
-4.7824183e-03 -6.9075589e-02 0.0000000e+00 
-2.9487304e-03 -6.9151242e-02 0.0000000e+00 
-1.1160230e-03 -6.9235420e-02 0.0000000e+00 
7.1609642e-04 -6.9328142e-02 0.0000000e+00 
-4.9451772e-03 -7.1536910e-02 0.0000000e+00 
-3.0790900e-03 -7.1615652e-02 0.0000000e+00 
-1.2140023e-03 -7.1702834e-02 0.0000000e+00 
6.5050351e-04 -7.1798482e-02 0.0000000e+00 
-5.1114862e-03 -7.4041196e-02 0.0000000e+00 
-3.2133203e-03 -7.4123054e-02 0.0000000e+00 
-1.3161719e-03 -7.4213265e-02 0.0000000e+00 
5.8040132e-04 -7.4311856e-02 0.0000000e+00 
-5.2813451e-03 -7.6588014e-02 0.0000000e+00 
-3.3514400e-03 -7.6673012e-02 0.0000000e+00 
-1.4225690e-03 -7.6766270e-02 0.0000000e+00 
5.0573418e-04 -7.6867819e-02 0.0000000e+00 
-5.4547502e-03 -7.9176904e-02 0.0000000e+00 
-3.4934633e-03 -7.9265063e-02 0.0000000e+00 
-1.5332263e-03 -7.9361384e-02 0.0000000e+00 
4.2645108e-04 -7.9465903e-02 0.0000000e+00 
-5.6316937e-03 -8.1807384e-02 0.0000000e+00 
-3.6394004e-03 -8.1898720e-02 0.0000000e+00 
-1.6481714e-03 -8.1998118e-02 0.0000000e+00 
3.4250643e-04 -8.2105613e-02 0.0000000e+00 
-5.8121638e-03 -8.4478947e-02 0.0000000e+00 
-3.7892570e-03 -8.4573475e-02 0.0000000e+00 
-1.7674268e-03 -8.4675958e-02 0.0000000e+00 
2.5385921e-04 -8.4786435e-02 0.0000000e+00 
-5.9961474e-03 -8.7191067e-02 0.0000000e+00 
-3.9430344e-03 -8.7288796e-02 0.0000000e+00 
-1.8910106e-03 -8.7394369e-02 0.0000000e+00 
1.6047943e-04 -8.7507829e-02 0.0000000e+00 
-6.1836248e-03 -8.9943195e-02 0.0000000e+00 
-4.1007296e-03 -9.0044132e-02 0.0000000e+00 
-2.0189349e-03 -9.0152798e-02 0.0000000e+00 
6.2335057e-05 -9.0269239e-02 0.0000000e+00 
-6.3745708e-03 -9.2734762e-02 0.0000000e+00 
-4.2623344e-03 -9.2838908e-02 0.0000000e+00 
-2.1512084e-03 -9.2950665e-02 0.0000000e+00 
-4.0595211e-05 -9.3070081e-02 0.0000000e+00 
-6.5689566e-03 -9.5565174e-02 0.0000000e+00 
-4.4278358e-03 -9.5672531e-02 0.0000000e+00 
-2.2878351e-03 -9.5787373e-02 0.0000000e+00 
-1.4833126e-04 -9.5909756e-02 0.0000000e+00 
-6.7667453e-03 -9.8433818e-02 0.0000000e+00 
-4.5972158e-03 -9.8544379e-02 0.0000000e+00 
-2.4288133e-03 -9.8662298e-02 0.0000000e+00 
-2.6089475e-04 -9.8787632e-02 0.0000000e+00 
-6.9678991e-03 -1.0134006e-01 0.0000000e+00 
-4.7704514e-03 -1.0145381e-01 0.0000000e+00 
-2.5741368e-03 -1.0157479e-01 0.0000000e+00 
-3.7829286e-04 -1.0170306e-01 0.0000000e+00 
-7.1723760e-03 -1.0428323e-01 0.0000000e+00 
-4.9475157e-03 -1.0440017e-01 0.0000000e+00 
-2.7237929e-03 -1.0452419e-01 0.0000000e+00 
-5.0052652e-04 -1.0465538e-01 0.0000000e+00 
-7.3801303e-03 -1.0726266e-01 0.0000000e+00 
-5.1283767e-03 -1.0738276e-01 0.0000000e+00 
-2.8777636e-03 -1.0750982e-01 0.0000000e+00 
-6.2759243e-04 -1.0764389e-01 0.0000000e+00 
-7.5911126e-03 -1.1027765e-01 0.0000000e+00 
-5.3129979e-03 -1.1040090e-01 0.0000000e+00 
-3.0360250e-03 -1.1053096e-01 0.0000000e+00 
-7.5947993e-04 -1.1066790e-01 0.0000000e+00 
-7.8052705e-03 -1.1332749e-01 0.0000000e+00 
-5.5013390e-03 -1.1345386e-01 0.0000000e+00 
-3.1985491e-03 -1.1358689e-01 0.0000000e+00 
-8.9617187e-04 -1.1372666e-01 0.0000000e+00 
-8.0225485e-03 -1.1641146e-01 0.0000000e+00 
-5.6933554e-03 -1.1654092e-01 0.0000000e+00 
-3.3653022e-03 -1.1667689e-01 0.0000000e+00 
-1.0376463e-03 -1.1681946e-01 0.0000000e+00 
-8.2428874e-03 -1.1952880e-01 0.0000000e+00 
-5.8889981e-03 -1.1966132e-01 0.0000000e+00 
-3.5362459e-03 -1.1980021e-01 0.0000000e+00 
-1.1838752e-03 -1.1994554e-01 0.0000000e+00 
-8.4662246e-03 -1.2267877e-01 0.0000000e+00 
-6.0882147e-03 -1.2281432e-01 0.0000000e+00 
-3.7113366e-03 -1.2295608e-01 0.0000000e+00 
-1.3348257e-03 -1.2310413e-01 0.0000000e+00 
-8.6924975e-03 -1.2586060e-01 0.0000000e+00 
-6.2909485e-03 -1.2599913e-01 0.0000000e+00 
-3.8905262e-03 -1.2614372e-01 0.0000000e+00 
-1.4904544e-03 -1.2629446e-01 0.0000000e+00 
-8.9216375e-03 -1.2907351e-01 0.0000000e+00 
-6.4971394e-03 -1.2921499e-01 0.0000000e+00 
-4.0737618e-03 -1.2936237e-01 0.0000000e+00 
-1.6507194e-03 -1.2951574e-01 0.0000000e+00 
-9.1535720e-03 -1.3231672e-01 0.0000000e+00 
-6.7067231e-03 -1.3246110e-01 0.0000000e+00 
-4.2609871e-03 -1.3261122e-01 0.0000000e+00 
-1.8155683e-03 -1.3276717e-01 0.0000000e+00 
-9.3882260e-03 -1.3558943e-01 0.0000000e+00 
-6.9196313e-03 -1.3573666e-01 0.0000000e+00 
-4.4521417e-03 -1.3588947e-01 0.0000000e+00 
-1.9849488e-03 -1.3604796e-01 0.0000000e+00 
-9.6255179e-03 -1.3889082e-01 0.0000000e+00 
-7.1357920e-03 -1.3904085e-01 0.0000000e+00 
-4.6471607e-03 -1.3919631e-01 0.0000000e+00 
-2.1588080e-03 -1.3935727e-01 0.0000000e+00 
-9.8653670e-03 -1.4222009e-01 0.0000000e+00 
-7.3551297e-03 -1.4237287e-01 0.0000000e+00 
-4.8459755e-03 -1.4253090e-01 0.0000000e+00 
-2.3370822e-03 -1.4269429e-01 0.0000000e+00 
-1.0107690e-02 -1.4557640e-01 0.0000000e+00 
-7.5775664e-03 -1.4573187e-01 0.0000000e+00 
-5.0485125e-03 -1.4589243e-01 0.0000000e+00 
-2.5197015e-03 -1.4605818e-01 0.0000000e+00 
-1.0352404e-02 -1.4895892e-01 0.0000000e+00 
-7.8030211e-03 -1.4911702e-01 0.0000000e+00 
-5.2546947e-03 -1.4928005e-01 0.0000000e+00 
-2.7065934e-03 -1.4944810e-01 0.0000000e+00 
-1.0599420e-02 -1.5236682e-01 0.0000000e+00 
-8.0314103e-03 -1.5252749e-01 0.0000000e+00 
-5.4644412e-03 -1.5269292e-01 0.0000000e+00 
-2.8976790e-03 -1.5286321e-01 0.0000000e+00 
-1.0848652e-02 -1.5579925e-01 0.0000000e+00 
-8.2626481e-03 -1.5596243e-01 0.0000000e+00 
-5.6776682e-03 -1.5613020e-01 0.0000000e+00 
-3.0928773e-03 -1.5630267e-01 0.0000000e+00 
-1.1100011e-02 -1.5925538e-01 0.0000000e+00 
-8.4966461e-03 -1.5942100e-01 0.0000000e+00 
-5.8942875e-03 -1.5959104e-01 0.0000000e+00 
-3.2921013e-03 -1.5976561e-01 0.0000000e+00 
-1.1353407e-02 -1.6273436e-01 0.0000000e+00 
-8.7333148e-03 -1.6290235e-01 0.0000000e+00 
-6.1142096e-03 -1.6307459e-01 0.0000000e+00 
-3.4952596e-03 -1.6325121e-01 0.0000000e+00 
-1.1608752e-02 -1.6623534e-01 0.0000000e+00 
-8.9725630e-03 -1.6640563e-01 0.0000000e+00 
-6.3373417e-03 -1.6658002e-01 0.0000000e+00 
-3.7022589e-03 -1.6675860e-01 0.0000000e+00 
-1.1865955e-02 -1.6975750e-01 0.0000000e+00 
-9.2142983e-03 -1.6993002e-01 0.0000000e+00 
-6.5635888e-03 -1.7010647e-01 0.0000000e+00 
-3.9130012e-03 -1.7028695e-01 0.0000000e+00 
-1.2124925e-02 -1.7329999e-01 0.0000000e+00 
-9.4584275e-03 -1.7347466e-01 0.0000000e+00 
-6.7928540e-03 -1.7365311e-01 0.0000000e+00 
-4.1273873e-03 -1.7383542e-01 0.0000000e+00 
-1.2385576e-02 -1.7686199e-01 0.0000000e+00 
-9.7048564e-03 -1.7703874e-01 0.0000000e+00 
-7.0250388e-03 -1.7721910e-01 0.0000000e+00 