# vtk DataFile Version 4.0
vtk output
ASCII
DATASET UNSTRUCTURED_GRID
POINTS 604 float
5.5000000e+00 5.9700000e+00 0.0000000e+00 
5.5000000e+00 5.9900000e+00 0.0000000e+00 
5.5266667e+00 5.9700000e+00 0.0000000e+00 
5.5266667e+00 5.9900000e+00 0.0000000e+00 
5.5000000e+00 6.0100000e+00 0.0000000e+00 
5.5266667e+00 6.0100000e+00 0.0000000e+00 
5.5533333e+00 5.9700000e+00 0.0000000e+00 
5.5533333e+00 5.9900000e+00 0.0000000e+00 
5.5000000e+00 6.0300000e+00 0.0000000e+00 
5.5266667e+00 6.0300000e+00 0.0000000e+00 
5.5533333e+00 6.0100000e+00 0.0000000e+00 
5.5800000e+00 5.9700000e+00 0.0000000e+00 
5.5533333e+00 6.0300000e+00 0.0000000e+00 
5.5800000e+00 5.9900000e+00 0.0000000e+00 
5.5800000e+00 6.0100000e+00 0.0000000e+00 
5.5800000e+00 6.0300000e+00 0.0000000e+00 
5.6066667e+00 5.9700000e+00 0.0000000e+00 
5.6066667e+00 5.9900000e+00 0.0000000e+00 
5.6066667e+00 6.0100000e+00 0.0000000e+00 
5.6066667e+00 6.0300000e+00 0.0000000e+00 
5.6333333e+00 5.9700000e+00 0.0000000e+00 
5.6333333e+00 5.9900000e+00 0.0000000e+00 
5.6333333e+00 6.0100000e+00 0.0000000e+00 
5.6333333e+00 6.0300000e+00 0.0000000e+00 
5.6600000e+00 5.9700000e+00 0.0000000e+00 
5.6600000e+00 5.9900000e+00 0.0000000e+00 
5.6600000e+00 6.0100000e+00 0.0000000e+00 
5.6600000e+00 6.0300000e+00 0.0000000e+00 
5.6866667e+00 5.9700000e+00 0.0000000e+00 
5.6866667e+00 5.9900000e+00 0.0000000e+00 
5.6866667e+00 6.0100000e+00 0.0000000e+00 
5.6866667e+00 6.0300000e+00 0.0000000e+00 
5.7133333e+00 5.9700000e+00 0.0000000e+00 
5.7133333e+00 5.9900000e+00 0.0000000e+00 
5.7133333e+00 6.0100000e+00 0.0000000e+00 
5.7133333e+00 6.0300000e+00 0.0000000e+00 
5.7400000e+00 5.9700000e+00 0.0000000e+00 
5.7400000e+00 5.9900000e+00 0.0000000e+00 
5.7400000e+00 6.0100000e+00 0.0000000e+00 
5.7400000e+00 6.0300000e+00 0.0000000e+00 
5.7666667e+00 5.9700000e+00 0.0000000e+00 
5.7666667e+00 5.9900000e+00 0.0000000e+00 
5.7666667e+00 6.0100000e+00 0.0000000e+00 
5.7666667e+00 6.0300000e+00 0.0000000e+00 
5.7933333e+00 5.9700000e+00 0.0000000e+00 
5.7933333e+00 5.9900000e+00 0.0000000e+00 
5.7933333e+00 6.0100000e+00 0.0000000e+00 
5.7933333e+00 6.0300000e+00 0.0000000e+00 
5.8200000e+00 5.9700000e+00 0.0000000e+00 
5.8200000e+00 5.9900000e+00 0.0000000e+00 
5.8200000e+00 6.0100000e+00 0.0000000e+00 
5.8200000e+00 6.0300000e+00 0.0000000e+00 
5.8466667e+00 5.9700000e+00 0.0000000e+00 
5.8466667e+00 5.9900000e+00 0.0000000e+00 
5.8466667e+00 6.0100000e+00 0.0000000e+00 
5.8466667e+00 6.0300000e+00 0.0000000e+00 
5.8733333e+00 5.9700000e+00 0.0000000e+00 
5.8733333e+00 5.9900000e+00 0.0000000e+00 
5.8733333e+00 6.0100000e+00 0.0000000e+00 
5.8733333e+00 6.0300000e+00 0.0000000e+00 
5.9000000e+00 5.9700000e+00 0.0000000e+00 
5.9000000e+00 5.9900000e+00 0.0000000e+00 
5.9000000e+00 6.0100000e+00 0.0000000e+00 
5.9000000e+00 6.0300000e+00 0.0000000e+00 
5.9266667e+00 5.9700000e+00 0.0000000e+00 
5.9266667e+00 5.9900000e+00 0.0000000e+00 
5.9266667e+00 6.0100000e+00 0.0000000e+00 
5.9266667e+00 6.0300000e+00 0.0000000e+00 
5.9533333e+00 5.9700000e+00 0.0000000e+00 
5.9533333e+00 5.9900000e+00 0.0000000e+00 
5.9533333e+00 6.0100000e+00 0.0000000e+00 
5.9533333e+00 6.0300000e+00 0.0000000e+00 
5.9800000e+00 5.9700000e+00 0.0000000e+00 
5.9800000e+00 5.9900000e+00 0.0000000e+00 
5.9800000e+00 6.0100000e+00 0.0000000e+00 
5.9800000e+00 6.0300000e+00 0.0000000e+00 
6.0066667e+00 5.9700000e+00 0.0000000e+00 
6.0066667e+00 5.9900000e+00 0.0000000e+00 
6.0066667e+00 6.0100000e+00 0.0000000e+00 
6.0066667e+00 6.0300000e+00 0.0000000e+00 
6.0333333e+00 5.9700000e+00 0.0000000e+00 
6.0333333e+00 5.9900000e+00 0.0000000e+00 
6.0333333e+00 6.0100000e+00 0.0000000e+00 
6.0333333e+00 6.0300000e+00 0.0000000e+00 
6.0600000e+00 5.9700000e+00 0.0000000e+00 
6.0600000e+00 5.9900000e+00 0.0000000e+00 
6.0600000e+00 6.0100000e+00 0.0000000e+00 
6.0600000e+00 6.0300000e+00 0.0000000e+00 
6.0866667e+00 5.9700000e+00 0.0000000e+00 
6.0866667e+00 5.9900000e+00 0.0000000e+00 
6.0866667e+00 6.0100000e+00 0.0000000e+00 
6.0866667e+00 6.0300000e+00 0.0000000e+00 
6.1133333e+00 5.9700000e+00 0.0000000e+00 
6.1133333e+00 5.9900000e+00 0.0000000e+00 
6.1133333e+00 6.0100000e+00 0.0000000e+00 
6.1133333e+00 6.0300000e+00 0.0000000e+00 
6.1400000e+00 5.9700000e+00 0.0000000e+00 
6.1400000e+00 5.9900000e+00 0.0000000e+00 
6.1400000e+00 6.0100000e+00 0.0000000e+00 
6.1400000e+00 6.0300000e+00 0.0000000e+00 
6.1666667e+00 5.9700000e+00 0.0000000e+00 
6.1666667e+00 5.9900000e+00 0.0000000e+00 
6.1666667e+00 6.0100000e+00 0.0000000e+00 
6.1666667e+00 6.0300000e+00 0.0000000e+00 
6.1933333e+00 5.9700000e+00 0.0000000e+00 
6.1933333e+00 5.9900000e+00 0.0000000e+00 
6.1933333e+00 6.0100000e+00 0.0000000e+00 
6.1933333e+00 6.0300000e+00 0.0000000e+00 
6.2200000e+00 5.9700000e+00 0.0000000e+00 
6.2200000e+00 5.9900000e+00 0.0000000e+00 
6.2200000e+00 6.0100000e+00 0.0000000e+00 
6.2200000e+00 6.0300000e+00 0.0000000e+00 
6.2466667e+00 5.9700000e+00 0.0000000e+00 
6.2466667e+00 5.9900000e+00 0.0000000e+00 
6.2466667e+00 6.0100000e+00 0.0000000e+00 
6.2466667e+00 6.0300000e+00 0.0000000e+00 
6.2733333e+00 5.9700000e+00 0.0000000e+00 
6.2733333e+00 5.9900000e+00 0.0000000e+00 
6.2733333e+00 6.0100000e+00 0.0000000e+00 
6.2733333e+00 6.0300000e+00 0.0000000e+00 
6.3000000e+00 5.9700000e+00 0.0000000e+00 
6.3000000e+00 5.9900000e+00 0.0000000e+00 
6.3000000e+00 6.0100000e+00 0.0000000e+00 
6.3000000e+00 6.0300000e+00 0.0000000e+00 
6.3266667e+00 5.9700000e+00 0.0000000e+00 
6.3266667e+00 5.9900000e+00 0.0000000e+00 
6.3266667e+00 6.0100000e+00 0.0000000e+00 
6.3266667e+00 6.0300000e+00 0.0000000e+00 
6.3533333e+00 5.9700000e+00 0.0000000e+00 
6.3533333e+00 5.9900000e+00 0.0000000e+00 
6.3533333e+00 6.0100000e+00 0.0000000e+00 
6.3533333e+00 6.0300000e+00 0.0000000e+00 
6.3800000e+00 5.9700000e+00 0.0000000e+00 
6.3800000e+00 5.9900000e+00 0.0000000e+00 
6.3800000e+00 6.0100000e+00 0.0000000e+00 
6.3800000e+00 6.0300000e+00 0.0000000e+00 
6.4066667e+00 5.9700000e+00 0.0000000e+00 
6.4066667e+00 5.9900000e+00 0.0000000e+00 
6.4066667e+00 6.0100000e+00 0.0000000e+00 
6.4066667e+00 6.0300000e+00 0.0000000e+00 
6.4333333e+00 5.9700000e+00 0.0000000e+00 
6.4333333e+00 5.9900000e+00 0.0000000e+00 
6.4333333e+00 6.0100000e+00 0.0000000e+00 
6.4333333e+00 6.0300000e+00 0.0000000e+00 
6.4600000e+00 5.9700000e+00 0.0000000e+00 
6.4600000e+00 5.9900000e+00 0.0000000e+00 
6.4600000e+00 6.0100000e+00 0.0000000e+00 
6.4600000e+00 6.0300000e+00 0.0000000e+00 
6.4866667e+00 5.9700000e+00 0.0000000e+00 
6.4866667e+00 5.9900000e+00 0.0000000e+00 
6.4866667e+00 6.0100000e+00 0.0000000e+00 
6.4866667e+00 6.0300000e+00 0.0000000e+00 
6.5133333e+00 5.9700000e+00 0.0000000e+00 
6.5133333e+00 5.9900000e+00 0.0000000e+00 
6.5133333e+00 6.0100000e+00 0.0000000e+00 
6.5133333e+00 6.0300000e+00 0.0000000e+00 
6.5400000e+00 5.9700000e+00 0.0000000e+00 
6.5400000e+00 5.9900000e+00 0.0000000e+00 
6.5400000e+00 6.0100000e+00 0.0000000e+00 
6.5400000e+00 6.0300000e+00 0.0000000e+00 
6.5666667e+00 5.9700000e+00 0.0000000e+00 
6.5666667e+00 5.9900000e+00 0.0000000e+00 
6.5666667e+00 6.0100000e+00 0.0000000e+00 
6.5666667e+00 6.0300000e+00 0.0000000e+00 
6.5933333e+00 5.9700000e+00 0.0000000e+00 
6.5933333e+00 5.9900000e+00 0.0000000e+00 
6.5933333e+00 6.0100000e+00 0.0000000e+00 
6.5933333e+00 6.0300000e+00 0.0000000e+00 
6.6200000e+00 5.9700000e+00 0.0000000e+00 
6.6200000e+00 5.9900000e+00 0.0000000e+00 
6.6200000e+00 6.0100000e+00 0.0000000e+00 
6.6200000e+00 6.0300000e+00 0.0000000e+00 
6.6466667e+00 5.9700000e+00 0.0000000e+00 
6.6466667e+00 5.9900000e+00 0.0000000e+00 
6.6466667e+00 6.0100000e+00 0.0000000e+00 
6.6466667e+00 6.0300000e+00 0.0000000e+00 
6.6733333e+00 5.9700000e+00 0.0000000e+00 
6.6733333e+00 5.9900000e+00 0.0000000e+00 
6.6733333e+00 6.0100000e+00 0.0000000e+00 
6.6733333e+00 6.0300000e+00 0.0000000e+00 
6.7000000e+00 5.9700000e+00 0.0000000e+00 
6.7000000e+00 5.9900000e+00 0.0000000e+00 
6.7000000e+00 6.0100000e+00 0.0000000e+00 
6.7000000e+00 6.0300000e+00 0.0000000e+00 
6.7266667e+00 5.9700000e+00 0.0000000e+00 
6.7266667e+00 5.9900000e+00 0.0000000e+00 
6.7266667e+00 6.0100000e+00 0.0000000e+00 
6.7266667e+00 6.0300000e+00 0.0000000e+00 
6.7533333e+00 5.9700000e+00 0.0000000e+00 
6.7533333e+00 5.9900000e+00 0.0000000e+00 
6.7533333e+00 6.0100000e+00 0.0000000e+00 
6.7533333e+00 6.0300000e+00 0.0000000e+00 
6.7800000e+00 5.9700000e+00 0.0000000e+00 
6.7800000e+00 5.9900000e+00 0.0000000e+00 
6.7800000e+00 6.0100000e+00 0.0000000e+00 
6.7800000e+00 6.0300000e+00 0.0000000e+00 
6.8066667e+00 5.9700000e+00 0.0000000e+00 
6.8066667e+00 5.9900000e+00 0.0000000e+00 
6.8066667e+00 6.0100000e+00 0.0000000e+00 
6.8066667e+00 6.0300000e+00 0.0000000e+00 
6.8333333e+00 5.9700000e+00 0.0000000e+00 
6.8333333e+00 5.9900000e+00 0.0000000e+00 
6.8333333e+00 6.0100000e+00 0.0000000e+00 
6.8333333e+00 6.0300000e+00 0.0000000e+00 
6.8600000e+00 5.9700000e+00 0.0000000e+00 
6.8600000e+00 5.9900000e+00 0.0000000e+00 
6.8600000e+00 6.0100000e+00 0.0000000e+00 
6.8600000e+00 6.0300000e+00 0.0000000e+00 
6.8866667e+00 5.9700000e+00 0.0000000e+00 
6.8866667e+00 5.9900000e+00 0.0000000e+00 
6.8866667e+00 6.0100000e+00 0.0000000e+00 
6.8866667e+00 6.0300000e+00 0.0000000e+00 
6.9133333e+00 5.9700000e+00 0.0000000e+00 
6.9133333e+00 5.9900000e+00 0.0000000e+00 
6.9133333e+00 6.0100000e+00 0.0000000e+00 
6.9133333e+00 6.0300000e+00 0.0000000e+00 
6.9400000e+00 5.9700000e+00 0.0000000e+00 
6.9400000e+00 5.9900000e+00 0.0000000e+00 
6.9400000e+00 6.0100000e+00 0.0000000e+00 
6.9400000e+00 6.0300000e+00 0.0000000e+00 
6.9666667e+00 5.9700000e+00 0.0000000e+00 
6.9666667e+00 5.9900000e+00 0.0000000e+00 
6.9666667e+00 6.0100000e+00 0.0000000e+00 
6.9666667e+00 6.0300000e+00 0.0000000e+00 
6.9933333e+00 5.9700000e+00 0.0000000e+00 
6.9933333e+00 5.9900000e+00 0.0000000e+00 
6.9933333e+00 6.0100000e+00 0.0000000e+00 
6.9933333e+00 6.0300000e+00 0.0000000e+00 
7.0200000e+00 5.9700000e+00 0.0000000e+00 
7.0200000e+00 5.9900000e+00 0.0000000e+00 
[...]
POINT_DATA 604
FIELD FieldData 2
DISPLACEMENT 3 604  float
0.0000000e+00 0.0000000e+00 0.0000000e+00 
0.0000000e+00 0.0000000e+00 0.0000000e+00 
-8.6275487e-05 -5.1459126e-05 0.0000000e+00 
-2.7559545e-05 -3.3434979e-05 0.0000000e+00 
0.0000000e+00 0.0000000e+00 0.0000000e+00 
2.7230272e-05 -3.3539637e-05 0.0000000e+00 
-1.7449499e-04 -1.6575457e-04 0.0000000e+00 
-5.8524558e-05 -1.5113197e-04 0.0000000e+00 
0.0000000e+00 0.0000000e+00 0.0000000e+00 
8.5873596e-05 -5.1736543e-05 0.0000000e+00 
5.7422198e-05 -1.5150752e-04 0.0000000e+00 
-2.6221612e-04 -3.5962197e-04 0.0000000e+00 
1.7322103e-04 -1.6683223e-04 0.0000000e+00 
-8.8092012e-05 -3.4526599e-04 0.0000000e+00 
8.5328608e-05 -3.4605441e-04 0.0000000e+00 
2.5918259e-04 -3.6194480e-04 0.0000000e+00 
-3.4940382e-04 -6.2964523e-04 0.0000000e+00 
-1.1816691e-04 -6.1610126e-04 0.0000000e+00 
1.1240474e-04 -6.1746434e-04 0.0000000e+00 
3.4329138e-04 -6.3369900e-04 0.0000000e+00 
-4.3633993e-04 -9.7509178e-04 0.0000000e+00 
-1.4871213e-04 -9.6247169e-04 0.0000000e+00 
1.3820681e-04 -9.6456301e-04 0.0000000e+00 
4.2540668e-04 -9.8133337e-04 0.0000000e+00 
-5.2322047e-04 -1.3949438e-03 0.0000000e+00 
-1.7995615e-04 -1.3833962e-03 0.0000000e+00 
1.6256558e-04 -1.3863615e-03 0.0000000e+00 
5.0532710e-04 -1.4038114e-03 0.0000000e+00 
-6.1024315e-04 -1.8882165e-03 0.0000000e+00 
-2.1208889e-04 -1.8778796e-03 0.0000000e+00 
1.8528992e-04 -1.8818588e-03 0.0000000e+00 
5.8286969e-04 -1.9001294e-03 0.0000000e+00 
-6.9759680e-04 -2.4539276e-03 0.0000000e+00 
-2.4529514e-04 -2.4449342e-03 0.0000000e+00 
2.0619983e-04 -2.4500610e-03 0.0000000e+00 
6.5785844e-04 -2.4692872e-03 0.0000000e+00 
-7.8546244e-04 -3.0911010e-03 0.0000000e+00 
-2.7975147e-04 -3.0835778e-03 0.0000000e+00 
2.2512303e-04 -3.0899803e-03 0.0000000e+00 
7.3012543e-04 -3.1102910e-03 0.0000000e+00 
-8.7401318e-04 -3.7987660e-03 0.0000000e+00 
-3.1562675e-04 -3.7928341e-03 0.0000000e+00 
2.4189502e-04 -3.8006344e-03 0.0000000e+00 
7.9951036e-04 -3.8221530e-03 0.0000000e+00 
-9.6341483e-04 -4.5759577e-03 0.0000000e+00 
-3.5308217e-04 -4.5717324e-03 0.0000000e+00 
2.5635886e-04 -4.5810470e-03 0.0000000e+00 
8.6586077e-04 -4.6038912e-03 0.0000000e+00 
-1.0538252e-03 -5.4217165e-03 0.0000000e+00 
-3.9227162e-04 -5.4193077e-03 0.0000000e+00 
2.6836508e-04 -5.4302477e-03 0.0000000e+00 
9.2903121e-04 -5.4545296e-03 0.0000000e+00 
-1.1453957e-03 -6.3350886e-03 0.0000000e+00 
-4.3334165e-04 -6.3346007e-03 0.0000000e+00 
2.7777143e-04 -6.3472719e-03 0.0000000e+00 
9.8888397e-04 -6.3730983e-03 0.0000000e+00 
-1.2382699e-03 -7.3151258e-03 0.0000000e+00 
-4.7643181e-04 -7.3166581e-03 0.0000000e+00 
2.8444283e-04 -7.3311608e-03 0.0000000e+00 
1.0452882e-03 -7.3586332e-03 0.0000000e+00 
-1.3325853e-03 -8.3608855e-03 0.0000000e+00 
-5.2167472e-04 -8.3645321e-03 0.0000000e+00 
2.8825109e-04 -8.3809616e-03 0.0000000e+00 
1.0981203e-03 -8.4101765e-03 0.0000000e+00 
-1.4284720e-03 -9.4714312e-03 0.0000000e+00 
-5.6919625e-04 -9.4772811e-03 0.0000000e+00 
2.8907480e-04 -9.4957278e-03 0.0000000e+00 
1.1472633e-03 -9.5267765e-03 0.0000000e+00 
-1.5260539e-03 -1.0645832e-02 0.0000000e+00 
-6.1911568e-04 -1.0653969e-02 0.0000000e+00 
2.8679919e-04 -1.0674518e-02 0.0000000e+00 
1.1926067e-03 -1.0707488e-02 0.0000000e+00 
-1.6254484e-03 -1.1883163e-02 0.0000000e+00 
-6.7154585e-04 -1.1893667e-02 0.0000000e+00 
2.8131592e-04 -1.1916399e-02 0.0000000e+00 
1.2340468e-03 -1.1951370e-02 0.0000000e+00 
-1.7267667e-03 -1.3182504e-02 0.0000000e+00 
-7.2659334e-04 -1.3195450e-02 0.0000000e+00 
2.7252300e-04 -1.3220441e-02 0.0000000e+00 
1.2714860e-03 -1.3257492e-02 0.0000000e+00 
-1.8301137e-03 -1.4542943e-02 0.0000000e+00 
-7.8435868e-04 -1.4558401e-02 0.0000000e+00 
2.6032459e-04 -1.4585722e-02 0.0000000e+00 
1.3048332e-03 -1.4624925e-02 0.0000000e+00 
-1.9355893e-03 -1.5963573e-02 0.0000000e+00 
-8.4493643e-04 -1.5981607e-02 0.0000000e+00 
2.4463087e-04 -1.6011327e-02 0.0000000e+00 
1.3340034e-03 -1.6052749e-02 0.0000000e+00 
-2.0432869e-03 -1.7443492e-02 0.0000000e+00 
-9.0841535e-04 -1.7464165e-02 0.0000000e+00 
2.2535782e-04 -1.7496345e-02 0.0000000e+00 
1.3589173e-03 -1.7540051e-02 0.0000000e+00 
-2.1532940e-03 -1.8981805e-02 0.0000000e+00 
-9.7487849e-04 -1.9005175e-02 0.0000000e+00 
2.0242711e-04 -1.9039873e-02 0.0000000e+00 
1.3795011e-03 -1.9085923e-02 0.0000000e+00 
-2.2656932e-03 -2.0577625e-02 0.0000000e+00 
-1.0444032e-03 -2.0603744e-02 0.0000000e+00 
1.7576583e-04 -2.0641015e-02 0.0000000e+00 
1.3956867e-03 -2.0689465e-02 0.0000000e+00 
-2.3805603e-03 -2.2230069e-02 0.0000000e+00 
-1.1170617e-03 -2.2258986e-02 0.0000000e+00 
1.4530658e-04 -2.2298880e-02 0.0000000e+00 
1.4074108e-03 -2.2349780e-02 0.0000000e+00 
-2.4979672e-03 -2.3938258e-02 0.0000000e+00 
-1.1929206e-03 -2.3970019e-02 0.0000000e+00 
1.1098714e-04 -2.4012583e-02 0.0000000e+00 
1.4146161e-03 -2.4065981e-02 0.0000000e+00 
-2.6179802e-03 -2.5701323e-02 0.0000000e+00 
-1.2720417e-03 -2.5735969e-02 0.0000000e+00 
7.2750537e-05 -2.5781246e-02 0.0000000e+00 
1.4172501e-03 -2.5837186e-02 0.0000000e+00 
-2.7406611e-03 -2.7518399e-02 0.0000000e+00 
-1.3544817e-03 -2.7555968e-02 0.0000000e+00 
3.0544719e-05 -2.7603996e-02 0.0000000e+00 
1.4152657e-03 -2.7662519e-02 0.0000000e+00 
-2.8660663e-03 -2.9388628e-02 0.0000000e+00 
-1.4402926e-03 -2.9429153e-02 0.0000000e+00 
-1.5677475e-05 -2.9479968e-02 0.0000000e+00 
1.4086202e-03 -2.9541110e-02 0.0000000e+00 
-2.9942480e-03 -3.1311156e-02 0.0000000e+00 
-1.5295216e-03 -3.1354669e-02 0.0000000e+00 
-6.5958526e-05 -3.1408303e-02 0.0000000e+00 
1.3972761e-03 -3.1472098e-02 0.0000000e+00 
-3.1252538e-03 -3.3285139e-02 0.0000000e+00 
-1.6222114e-03 -3.3331666e-02 0.0000000e+00 
-1.2033633e-04 -3.3388148e-02 0.0000000e+00 
1.3812002e-03 -3.3454625e-02 0.0000000e+00 
-3.2591264e-03 -3.5309736e-02 0.0000000e+00 
-1.7184002e-03 -3.5359302e-02 0.0000000e+00 
-1.7884431e-04 -3.5418656e-02 0.0000000e+00 
1.3603637e-03 -3.5487842e-02 0.0000000e+00 
-3.3959050e-03 -3.7384113e-02 0.0000000e+00 
-1.8181220e-03 -3.7436739e-02 0.0000000e+00 
-2.4151161e-04 -3.7498988e-02 0.0000000e+00 
1.3347424e-03 -3.7570906e-02 0.0000000e+00 
-3.5356238e-03 -3.9507444e-02 0.0000000e+00 
-1.9214066e-03 -3.9563147e-02 0.0000000e+00 
-3.0836315e-04 -3.9628310e-02 0.0000000e+00 
1.3043161e-03 -3.9702980e-02 0.0000000e+00 
-3.6783137e-03 -4.1678907e-02 0.0000000e+00 
-2.0282797e-03 -4.1737702e-02 0.0000000e+00 
-3.7941968e-04 -4.1805795e-02 0.0000000e+00 
1.2690689e-03 -4.1883235e-02 0.0000000e+00 
-3.8240022e-03 -4.3897689e-02 0.0000000e+00 
-2.1387632e-03 -4.3959587e-02 0.0000000e+00 
-4.5469811e-04 -4.4030623e-02 0.0000000e+00 
1.2289894e-03 -4.4110847e-02 0.0000000e+00 
-3.9727123e-03 -4.6162981e-02 0.0000000e+00 
-2.2528754e-03 -4.6227992e-02 0.0000000e+00 
-5.3421150e-04 -4.6301982e-02 0.0000000e+00 
1.1840693e-03 -4.6385001e-02 0.0000000e+00 
-4.1244633e-03 -4.8473982e-02 0.0000000e+00 
-2.3706306e-03 -4.8542112e-02 0.0000000e+00 
-6.1796930e-04 -4.8619063e-02 0.0000000e+00 
1.1343040e-03 -4.8704887e-02 0.0000000e+00 
-4.2792710e-03 -5.0829899e-02 0.0000000e+00 
-2.4920395e-03 -5.0901151e-02 0.0000000e+00 
-7.0597753e-04 -5.0981068e-02 0.0000000e+00 
1.0796927e-03 -5.1069702e-02 0.0000000e+00 
-4.4371466e-03 -5.3229941e-02 0.0000000e+00 
-2.6171093e-03 -5.3304318e-02 0.0000000e+00 
-7.9823859e-04 -5.3387203e-02 0.0000000e+00 
1.0202368e-03 -5.3478651e-02 0.0000000e+00 
-4.5980992e-03 -5.5673328e-02 0.0000000e+00 
-2.7458439e-03 -5.5750827e-02 0.0000000e+00 
-8.9475162e-04 -5.5836680e-02 0.0000000e+00 
9.5594255e-04 -5.5930944e-02 0.0000000e+00 
-4.7621342e-03 -5.8159282e-02 0.0000000e+00 
-2.8782439e-03 -5.8239899e-02 0.0000000e+00 
-9.9551236e-04 -5.8328719e-02 0.0000000e+00 
8.8681882e-04 -5.8425797e-02 0.0000000e+00 
-4.9292544e-03 -6.0687034e-02 0.0000000e+00 
-3.0143070e-03 -6.0770764e-02 0.0000000e+00 
-1.1005135e-03 -6.0862545e-02 0.0000000e+00 
8.1287801e-04 -6.0962433e-02 0.0000000e+00 
-5.0994591e-03 -6.3255821e-02 0.0000000e+00 
-3.1540276e-03 -6.3342655e-02 0.0000000e+00 
-1.2097446e-03 -6.3437390e-02 0.0000000e+00 
7.3413531e-04 -6.3540084e-02 0.0000000e+00 
-5.2727452e-03 -6.5864886e-02 0.0000000e+00 
-3.2973975e-03 -6.5954814e-02 0.0000000e+00 
-1.3231925e-03 -6.6052494e-02 0.0000000e+00 
6.5060902e-04 -6.6157985e-02 0.0000000e+00 
-5.4491063e-03 -6.8513480e-02 0.0000000e+00 
-3.4444056e-03 -6.8606489e-02 0.0000000e+00 
-1.4408410e-03 -6.8707102e-02 0.0000000e+00 
5.6232008e-04 -6.8815380e-02 0.0000000e+00 
-5.6285336e-03 -7.1200857e-02 0.0000000e+00 
-3.5950379e-03 -7.1296933e-02 0.0000000e+00 
-1.5626714e-03 -7.1400467e-02 0.0000000e+00 
4.6929214e-04 -7.1511520e-02 0.0000000e+00 
-5.8110155e-03 -7.3926281e-02 0.0000000e+00 
-3.7492780e-03 -7.4025408e-02 0.0000000e+00 
-1.6886622e-03 -7.4131847e-02 0.0000000e+00 
3.7155159e-04 -7.4245662e-02 0.0000000e+00 
-5.9965381e-03 -7.6689022e-02 0.0000000e+00 
-3.9071070e-03 -7.6791180e-02 0.0000000e+00 
-1.8187897e-03 -7.6900508e-02 0.0000000e+00 
2.6912718e-04 -7.7017068e-02 0.0000000e+00 
-6.1850849e-03 -7.9488354e-02 0.0000000e+00 
-4.0685034e-03 -7.9593524e-02 0.0000000e+00 
-1.9530274e-03 -7.9705722e-02 0.0000000e+00 
1.6205021e-04 -7.9825011e-02 0.0000000e+00 
-6.3766373e-03 -8.2323560e-02 0.0000000e+00 
-4.2334437e-03 -8.2431721e-02 0.0000000e+00 
-2.0913468e-03 -8.2546767e-02 0.0000000e+00 
5.0354154e-05 -8.2668765e-02 0.0000000e+00 
-6.5711741e-03 -8.5193929e-02 0.0000000e+00 
-4.4019021e-03 -8.5305056e-02 0.0000000e+00 
-2.2337168e-03 -8.5422930e-02 0.0000000e+00 
-6.5925227e-05 -8.5547616e-02 0.0000000e+00 
-6.7686737e-03 -8.8098756e-02 0.0000000e+00 
-4.5738506e-03 -8.8212824e-02 0.0000000e+00 
-2.3801046e-03 -8.8333502e-02 0.0000000e+00 
-1.8674907e-04 -8.8460855e-02 0.0000000e+00 
-6.9691110e-03 -9.1037343e-02 0.0000000e+00 
-4.7492595e-03 -9.1154327e-02 0.0000000e+00 
-2.5304751e-03 -9.1277783e-02 0.0000000e+00 
-3.1207758e-04 -9.1407778e-02 0.0000000e+00 
-7.1724590e-03 -9.4008999e-02 0.0000000e+00 
-4.9280968e-03 -9.4128871e-02 0.0000000e+00 
-2.6847915e-03 -9.4255080e-02 0.0000000e+00 
-4.4186901e-04 -9.4387692e-02 0.0000000e+00 
-7.3786890e-03 -9.7013041e-02 0.0000000e+00 
-5.1103287e-03 -9.7135771e-02 0.0000000e+00 
-2.8430151e-03 -9.7264704e-02 0.0000000e+00 
-5.7607967e-04 -9.7399907e-02 0.0000000e+00 
-7.5877690e-03 -1.0004879e-01 0.0000000e+00 
-5.2959195e-03 -1.0017435e-01 0.0000000e+00 
-3.0051056e-03 -1.0030598e-01 0.0000000e+00 
-7.1466525e-04 -1.0044374e-01 0.0000000e+00 
-7.7996665e-03 -1.0311557e-01 0.0000000e+00 
-5.4848315e-03 -1.0324393e-01 0.0000000e+00 
-3.1710208e-03 -1.0337822e-01 0.0000000e+00 
-8.5757849e-04 -1.0351852e-01 0.0000000e+00 
-8.0143477e-03 -1.0621272e-01 0.0000000e+00 
-5.6770259e-03 -1.0634384e-01 0.0000000e+00 
-3.3407167e-03 -1.0648076e-01 0.0000000e+00 
-1.0047707e-03 -1.0662357e-01 0.0000000e+00 
-8.2317768e-03 -1.0933958e-01 0.0000000e+00 
-5.8724620e-03 -1.0947343e-01 0.0000000e+00 
-3.5141479e-03 -1.0961295e-01 0.0000000e+00 
-1.1561914e-03 -1.0975823e-01 0.0000000e+00 
-8.4519168e-03 -1.1249549e-01 0.0000000e+00 
-6.0710980e-03 -1.1263203e-01 0.0000000e+00 
-3.6912676e-03 -1.1277413e-01 0.0000000e+00 
-1.3117889e-03 -1.1292184e-01 0.0000000e+00 
-8.6747293e-03 -1.1567981e-01 0.0000000e+00 
-6.2728904e-03 -1.1581901e-01 0.0000000e+00 
-3.8720274e-03 -1.1596364e-01 0.0000000e+00 
-1.4715101e-03 -1.1611376e-01 0.0000000e+00 
-8.9001744e-03 -1.1889190e-01 0.0000000e+00 
-6.4777945e-03 -1.1903372e-01 0.0000000e+00 
-4.0563778e-03 -1.1918084e-01 0.0000000e+00 
-1.6353004e-03 -1.1933333e-01 0.0000000e+00 
-9.1282112e-03 -1.2213113e-01 0.0000000e+00 
-6.6857645e-03 -1.2227553e-01 0.0000000e+00 
-4.2442680e-03 -1.2242511e-01 0.0000000e+00 
-1.8031042e-03 -1.2257993e-01 0.0000000e+00 
-9.3587975e-03 -1.2539686e-01 0.0000000e+00 
-6.8967534e-03 -1.2554381e-01 0.0000000e+00 
-4.4356458e-03 -1.2569581e-01 0.0000000e+00 
-1.9748646e-03 -1.2585293e-01 0.0000000e+00 
-9.5918916e-03 -1.2868847e-01 0.0000000e+00 
-7.1107133e-03 -1.2883793e-01 0.0000000e+00 
-4.6304581e-03 -1.2899231e-01 0.0000000e+00 
-2.1505224e-03 -1.2915170e-01 0.0000000e+00 
-9.8274494e-03 -1.3200536e-01 0.0000000e+00 
-7.3275954e-03 -1.3215728e-01 0.0000000e+00 
-4.8286509e-03 -1.3231401e-01 0.0000000e+00 
-2.3300188e-03 -1.3247562e-01 0.0000000e+00 
-1.0065426e-02 -1.3534692e-01 0.0000000e+00 
-7.5473498e-03 -1.3550126e-01 0.0000000e+00 
-5.0301693e-03 -1.3566029e-01 0.0000000e+00 
-2.5132939e-03 -1.3582409e-01 0.0000000e+00 
-1.0305776e-02 -1.3871254e-01 0.0000000e+00 
-7.7699253e-03 -1.3886926e-01 0.0000000e+00 
-5.2349575e-03 -1.3903056e-01 0.0000000e+00 
-2.7002870e-03 -1.3919651e-01 0.0000000e+00 
-1.0548450e-02 -1.4210164e-01 0.0000000e+00 
-7.9952704e-03 -1.4226070e-01 0.0000000e+00 
-5.4429591e-03 -1.4242422e-01 0.0000000e+00 
-2.8909376e-03 -1.4259227e-01 0.0000000e+00 
-1.0793402e-02 -1.4551362e-01 0.0000000e+00 
-8.2233323e-03 -1.4567497e-01 0.0000000e+00 
-5.6541167e-03 -1.4584068e-01 0.0000000e+00 
-3.0851831e-03 -1.4601080e-01 0.0000000e+00 
-1.1040583e-02 -1.4894790e-01 0.0000000e+00 
-8.4540578e-03 -1.4911151e-01 0.0000000e+00 
-5.8683720e-03 -1.4927935e-01 0.0000000e+00 
-3.2829604e-03 -1.4945150e-01 0.0000000e+00 
-1.1289946e-02 -1.5240391e-01 0.0000000e+00 
-8.6873933e-03 -1.5256973e-01 0.0000000e+00 
-6.0856663e-03 -1.5273967e-01 0.0000000e+00 
-3.4842056e-03 -1.5291380e-01 0.0000000e+00 
-1.1541439e-02 -1.5588107e-01 0.0000000e+00 
-8.9232846e-03 -1.5604906e-01 0.0000000e+00 
-6.3059402e-03 -1.5622106e-01 0.0000000e+00 
-3.6888543e-03 -1.5639713e-01 0.0000000e+00 
-1.1795015e-02 -1.5937884e-01 0.0000000e+00 
-9.1616768e-03 -1.5954895e-01 0.0000000e+00 
-6.5291339e-03 -1.5972296e-01 0.0000000e+00 
-3.8968416e-03 -1.5990093e-01 0.0000000e+00 
-1.2050624e-02 -1.6289665e-01 0.0000000e+00 
-9.4025149e-03 -1.6306883e-01 0.0000000e+00 
-6.7551872e-03 -1.6324481e-01 0.0000000e+00 
-4.1081019e-03 -1.6342465e-01 0.0000000e+00 
-1.2308214e-02 -1.6643396e-01 0.0000000e+00 
-9.6457436e-03 -1.6660817e-01 0.0000000e+00 
-6.9840393e-03 -1.6678607e-01 0.0000000e+00 
-4.3225694e-03 -1.6696773e-01 0.0000000e+00 
-1.2567736e-02 -1.6999022e-01 0.0000000e+00 
-9.8913070e-03 -1.7016642e-01 0.0000000e+00 
-7.2156292e-03 -1.7034620e-01 0.0000000e+00 
-4.5401779e-03 -1.7052963e-01 0.0000000e+00 
-1.2829139e-02 -1.7356490e-01 0.0000000e+00 
-1.0139149e-02 -1.7374304e-01 0.0000000e+00 
-7.4498959e-03 -1.7392466e-01 0.0000000e+00 
-4.7608608e-03 -1.7410983e-01 0.0000000e+00 
-1.3092372e-02 -1.7715747e-01 0.0000000e+00 
-1.0389215e-02 -1.7733751e-01 0.0000000e+00 
-7.6867778e-03 -1.7752092e-01 0.0000000e+00 
-4.9845513e-03 -1.7770778e-01 0.0000000e+00 
-1.3357386e-02 -1.8076742e-01 0.0000000e+00 
-1.0641447e-02 -1.8094931e-01 0.0000000e+00 
-7.9262136e-03 -1.8113447e-01 0.0000000e+00 
-5.2111826e-03 -1.8132298e-01 0.0000000e+00 
-1.3624129e-02 -1.8439424e-01 0.0000000e+00 
-1.0895790e-02 -1.8457793e-01 0.0000000e+00 
-8.1681414e-03 -1.8476480e-01 0.0000000e+00 
-5.4406875e-03 -1.8495491e-01 0.0000000e+00 
-1.3892552e-02 -1.8803741e-01 0.0000000e+00 
-1.1152189e-02 -1.8822286e-01 0.0000000e+00 
-8.4124997e-03 -1.8841139e-01 0.0000000e+00 
-5.6729977e-03 -1.8860306e-01 0.0000000e+00 
-1.4162606e-02 -1.9169644e-01 0.0000000e+00 
-1.1410587e-02 -1.9188360e-01 0.0000000e+00 
-8.6592270e-03 -1.9207375e-01 0.0000000e+00 
-5.9080462e-03 -1.9226695e-01 0.0000000e+00 
-1.4434241e-02 -1.9537085e-01 0.0000000e+00 
-1.1670930e-02 -1.9555968e-01 0.0000000e+00 
-8.9082621e-03 -1.9575140e-01 0.0000000e+00 
-6.1457663e-03 -1.9594607e-01 0.0000000e+00 
-1.4707407e-02 -1.9906015e-01 0.0000000e+00 
-1.1933161e-02 -1.9925060e-01 0.0000000e+00 
-9.1595440e-03 -1.9944385e-01 0.0000000e+00 
-6.3860909e-03 -1.9963996e-01 0.0000000e+00 
-1.4982052e-02 -2.0276386e-01 0.0000000e+00 
-1.2197225e-02 -2.0295589e-01 0.0000000e+00 
-9.4130120e-03 -2.0315063e-01 0.0000000e+00 
-6.6289548e-03 -2.0334813e-01 0.0000000e+00 
-1.5258129e-02 -2.0648153e-01 0.0000000e+00 
-1.2463068e-02 -2.0667509e-01 0.0000000e+00 
-9.6686055e-03 -2.0687127e-01 0.0000000e+00 
-6.8742914e-03 -2.0707013e-01 0.0000000e+00 
-1.5535589e-02 -2.1021268e-01 0.0000000e+00 
-1.2730635e-02 -2.1040773e-01 0.0000000e+00 
-9.9262641e-03 -2.1060531e-01 0.0000000e+00 
-7.1220346e-03 -2.1080548e-01 0.0000000e+00 
-1.5814383e-02 -2.1395687e-01 0.0000000e+00 
-1.2999871e-02 -2.1415337e-01 0.0000000e+00 
-1.0185928e-02 -2.1435231e-01 0.0000000e+00 
-7.3721182e-03 -2.1455375e-01 0.0000000e+00 
-1.6094464e-02 -2.1771366e-01 0.0000000e+00 
-1.3270724e-02 -2.1791156e-01 0.0000000e+00 
-1.0447537e-02 -2.1811182e-01 0.0000000e+00 
-7.6244768e-03 -2.1831449e-01 0.0000000e+00 
-1.6375785e-02 -2.2148261e-01 0.0000000e+00 
-1.3543140e-02 -2.2168187e-01 0.0000000e+00 
-1.0711033e-02 -2.2188340e-01 0.0000000e+00 
-7.8790454e-03 -2.2208726e-01 0.0000000e+00 
-1.6658300e-02 -2.2526329e-01 0.0000000e+00 
-1.3817066e-02 -2.2546386e-01 0.0000000e+00 
-1.0976356e-02 -2.2566662e-01 0.0000000e+00 
-8.1357593e-03 -2.2587163e-01 0.0000000e+00 
-1.6941962e-02 -2.2905529e-01 0.0000000e+00 
-1.4092451e-02 -2.2925713e-01 0.0000000e+00 
-1.1243450e-02 -2.2946108e-01 0.0000000e+00 
-8.3945547e-03 -2.2966720e-01 0.0000000e+00 
-1.7226726e-02 -2.3285818e-01 0.0000000e+00 
-1.4369244e-02 -2.3306125e-01 0.0000000e+00 
-1.1512256e-02 -2.3326635e-01 0.0000000e+00 
-8.6553679e-03 -2.3347354e-01 0.0000000e+00 
-1.7512549e-02 -2.3667157e-01 0.0000000e+00 
-1.4647394e-02 -2.3687583e-01 0.0000000e+00 
-1.1782718e-02 -2.3708204e-01 0.0000000e+00 
-8.9181351e-03 -2.3729026e-01 0.0000000e+00 
-1.7799389e-02 -2.4049506e-01 0.0000000e+00 
-1.4926851e-02 -2.4070047e-01 0.0000000e+00 
-1.2054779e-02 -2.4090775e-01 0.0000000e+00 
-9.1827942e-03 -2.4111697e-01 0.0000000e+00 
-1.8087201e-02 -2.4432827e-01 0.0000000e+00 
-1.5207568e-02 -2.4453478e-01 0.0000000e+00 
-1.2328385e-02 -2.4474310e-01 0.0000000e+00 
-9.4492843e-03 -2.4495328e-01 0.0000000e+00 
-1.8375943e-02 -2.4817082e-01 0.0000000e+00 
-1.5489494e-02 -2.4837840e-01 0.0000000e+00 
-1.2603482e-02 -2.4858771e-01 0.0000000e+00 
-9.7175448e-03 -2.4879881e-01 0.0000000e+00 
-1.8665573e-02 -2.5202233e-01 0.0000000e+00 
-1.5772582e-02 -2.5223094e-01 0.0000000e+00 
-1.2880016e-02 -2.5244121e-01 0.0000000e+00 
-9.9875179e-03 -2.5265319e-01 0.0000000e+00 
-1.8956048e-02 -2.5588245e-01 0.0000000e+00 
-1.6056786e-02 -2.5609205e-01 0.0000000e+00 
-1.3157934e-02 -2.5630323e-01 0.0000000e+00 
-1.0259144e-02 -2.5651606e-01 0.0000000e+00 
-1.9247329e-02 -2.5975081e-01 0.0000000e+00 
-1.6342058e-02 -2.5996136e-01 0.0000000e+00 
-1.3437183e-02 -2.6017343e-01 0.0000000e+00 
-1.0532366e-02 -2.6038708e-01 0.0000000e+00 
-1.9539375e-02 -2.6362708e-01 0.0000000e+00 
-1.6628353e-02 -2.6383854e-01 0.0000000e+00 
-1.3717714e-02 -2.6405146e-01 0.0000000e+00 
-1.0807126e-02 -2.6426588e-01 0.0000000e+00 
-1.9832149e-02 -2.6751090e-01 0.0000000e+00 
-1.6915626e-02 -2.6772324e-01 0.0000000e+00 
-1.3999475e-02 -2.6793697e-01 0.0000000e+00 
-1.1083369e-02 -2.6815214e-01 0.0000000e+00 
-2.0125611e-02 -2.7140196e-01 0.0000000e+00 
-1.7203834e-02 -2.7161514e-01 0.0000000e+00 
-1.4282416e-02 -2.7182964e-01 0.0000000e+00 
-1.1361038e-02 -2.7204552e-01 0.0000000e+00 
-2.0419725e-02 -2.7529991e-01 0.0000000e+00 
-1.7492934e-02 -2.7551389e-01 0.0000000e+00 
-1.4566489e-02 -2.7572914e-01 0.0000000e+00 
-1.1640079e-02 -2.7594571e-01 0.0000000e+00 
-2.0714454e-02 -2.7920445e-01 0.0000000e+00 
-1.7782883e-02 -2.7941920e-01 0.0000000e+00 
-1.4851646e-02 -2.7963516e-01 0.0000000e+00 
-1.1920439e-02 -2.7985237e-01 0.0000000e+00 
-2.1009761e-02 -2.8311526e-01 0.0000000e+00 
-1.8073640e-02 -2.8333075e-01 0.0000000e+00 
-1.5137840e-02 -2.8354739e-01 0.0000000e+00 
-1.2202065e-02 -2.8376521e-01 0.0000000e+00 
-2.1305612e-02 -2.8703205e-01 0.0000000e+00 
-1.8365164e-02 -2.8724824e-01 0.0000000e+00 
-1.5425024e-02 -2.8746552e-01 0.0000000e+00 
-1.2484906e-02 -2.8768393e-01 0.0000000e+00 
-2.1601973e-02 -2.9095451e-01 0.0000000e+00 
-1.8657415e-02 -2.9117136e-01 0.0000000e+00 
-1.5713154e-02 -2.9138926e-01 0.0000000e+00 
-1.2768911e-02 -2.9160823e-01 0.0000000e+00 
-2.1898812e-02 -2.9488236e-01 0.0000000e+00 