# vtk DataFile Version 4.0
vtk output
ASCII
DATASET UNSTRUCTURED_GRID
POINTS 604 float
5.5000000e+00 5.9700000e+00 0.0000000e+00 
5.5000000e+00 5.9900000e+00 0.0000000e+00 
5.5266667e+00 5.9700000e+00 0.0000000e+00 
5.5266667e+00 5.9900000e+00 0.0000000e+00 
5.5000000e+00 6.0100000e+00 0.0000000e+00 
5.5266667e+00 6.0100000e+00 0.0000000e+00 
5.5533333e+00 5.9700000e+00 0.0000000e+00 
5.5533333e+00 5.9900000e+00 0.0000000e+00 
5.5000000e+00 6.0300000e+00 0.0000000e+00 
5.5266667e+00 6.0300000e+00 0.0000000e+00 
5.5533333e+00 6.0100000e+00 0.0000000e+00 
5.5800000e+00 5.9700000e+00 0.0000000e+00 
5.5533333e+00 6.0300000e+00 0.0000000e+00 
5.5800000e+00 5.9900000e+00 0.0000000e+00 
5.5800000e+00 6.0100000e+00 0.0000000e+00 
5.5800000e+00 6.0300000e+00 0.0000000e+00 
5.6066667e+00 5.9700000e+00 0.0000000e+00 
5.6066667e+00 5.9900000e+00 0.0000000e+00 
5.6066667e+00 6.0100000e+00 0.0000000e+00 
5.6066667e+00 6.0300000e+00 0.0000000e+00 
5.6333333e+00 5.9700000e+00 0.0000000e+00 
5.6333333e+00 5.9900000e+00 0.0000000e+00 
5.6333333e+00 6.0100000e+00 0.0000000e+00 
5.6333333e+00 6.0300000e+00 0.0000000e+00 
5.6600000e+00 5.9700000e+00 0.0000000e+00 
5.6600000e+00 5.9900000e+00 0.0000000e+00 
5.6600000e+00 6.0100000e+00 0.0000000e+00 
5.6600000e+00 6.0300000e+00 0.0000000e+00 
5.6866667e+00 5.9700000e+00 0.0000000e+00 
5.6866667e+00 5.9900000e+00 0.0000000e+00 
5.6866667e+00 6.0100000e+00 0.0000000e+00 
5.6866667e+00 6.0300000e+00 0.0000000e+00 
5.7133333e+00 5.9700000e+00 0.0000000e+00 
5.7133333e+00 5.9900000e+00 0.0000000e+00 
5.7133333e+00 6.0100000e+00 0.0000000e+00 
5.7133333e+00 6.0300000e+00 0.0000000e+00 
5.7400000e+00 5.9700000e+00 0.0000000e+00 
5.7400000e+00 5.9900000e+00 0.0000000e+00 
5.7400000e+00 6.0100000e+00 0.0000000e+00 
5.7400000e+00 6.0300000e+00 0.0000000e+00 
5.7666667e+00 5.9700000e+00 0.0000000e+00 
5.7666667e+00 5.9900000e+00 0.0000000e+00 
5.7666667e+00 6.0100000e+00 0.0000000e+00 
5.7666667e+00 6.0300000e+00 0.0000000e+00 
5.7933333e+00 5.9700000e+00 0.0000000e+00 
5.7933333e+00 5.9900000e+00 0.0000000e+00 
5.7933333e+00 6.0100000e+00 0.0000000e+00 
5.7933333e+00 6.0300000e+00 0.0000000e+00 
5.8200000e+00 5.9700000e+00 0.0000000e+00 
5.8200000e+00 5.9900000e+00 0.0000000e+00 
5.8200000e+00 6.0100000e+00 0.0000000e+00 
5.8200000e+00 6.0300000e+00 0.0000000e+00 
5.8466667e+00 5.9700000e+00 0.0000000e+00 
5.8466667e+00 5.9900000e+00 0.0000000e+00 
5.8466667e+00 6.0100000e+00 0.0000000e+00 
5.8466667e+00 6.0300000e+00 0.0000000e+00 
5.8733333e+00 5.9700000e+00 0.0000000e+00 
5.8733333e+00 5.9900000e+00 0.0000000e+00 
5.8733333e+00 6.0100000e+00 0.0000000e+00 
5.8733333e+00 6.0300000e+00 0.0000000e+00 
5.9000000e+00 5.9700000e+00 0.0000000e+00 
5.9000000e+00 5.9900000e+00 0.0000000e+00 
5.9000000e+00 6.0100000e+00 0.0000000e+00 
5.9000000e+00 6.0300000e+00 0.0000000e+00 
5.9266667e+00 5.9700000e+00 0.0000000e+00 
5.9266667e+00 5.9900000e+00 0.0000000e+00 
5.9266667e+00 6.0100000e+00 0.0000000e+00 
5.9266667e+00 6.0300000e+00 0.0000000e+00 
5.9533333e+00 5.9700000e+00 0.0000000e+00 
5.9533333e+00 5.9900000e+00 0.0000000e+00 
5.9533333e+00 6.0100000e+00 0.0000000e+00 
5.9533333e+00 6.0300000e+00 0.0000000e+00 
5.9800000e+00 5.9700000e+00 0.0000000e+00 
5.9800000e+00 5.9900000e+00 0.0000000e+00 
5.9800000e+00 6.0100000e+00 0.0000000e+00 
5.9800000e+00 6.0300000e+00 0.0000000e+00 
6.0066667e+00 5.9700000e+00 0.0000000e+00 
6.0066667e+00 5.9900000e+00 0.0000000e+00 
6.0066667e+00 6.0100000e+00 0.0000000e+00 
6.0066667e+00 6.0300000e+00 0.0000000e+00 
6.0333333e+00 5.9700000e+00 0.0000000e+00 
6.0333333e+00 5.9900000e+00 0.0000000e+00 
6.0333333e+00 6.0100000e+00 0.0000000e+00 
6.0333333e+00 6.0300000e+00 0.0000000e+00 
6.0600000e+00 5.9700000e+00 0.0000000e+00 
6.0600000e+00 5.9900000e+00 0.0000000e+00 
6.0600000e+00 6.0100000e+00 0.0000000e+00 
6.0600000e+00 6.0300000e+00 0.0000000e+00 
6.0866667e+00 5.9700000e+00 0.0000000e+00 
6.0866667e+00 5.9900000e+00 0.0000000e+00 
6.0866667e+00 6.0100000e+00 0.0000000e+00 
6.0866667e+00 6.0300000e+00 0.0000000e+00 
6.1133333e+00 5.9700000e+00 0.0000000e+00 
6.1133333e+00 5.9900000e+00 0.0000000e+00 
6.1133333e+00 6.0100000e+00 0.0000000e+00 
6.1133333e+00 6.0300000e+00 0.0000000e+00 
6.1400000e+00 5.9700000e+00 0.0000000e+00 
6.1400000e+00 5.9900000e+00 0.0000000e+00 
6.1400000e+00 6.0100000e+00 0.0000000e+00 
6.1400000e+00 6.0300000e+00 0.0000000e+00 
6.1666667e+00 5.9700000e+00 0.0000000e+00 
6.1666667e+00 5.9900000e+00 0.0000000e+00 
6.1666667e+00 6.0100000e+00 0.0000000e+00 
6.1666667e+00 6.0300000e+00 0.0000000e+00 
6.1933333e+00 5.9700000e+00 0.0000000e+00 
6.1933333e+00 5.9900000e+00 0.0000000e+00 
6.1933333e+00 6.0100000e+00 0.0000000e+00 
6.1933333e+00 6.0300000e+00 0.0000000e+00 
6.2200000e+00 5.9700000e+00 0.0000000e+00 
6.2200000e+00 5.9900000e+00 0.0000000e+00 
6.2200000e+00 6.0100000e+00 0.0000000e+00 
6.2200000e+00 6.0300000e+00 0.0000000e+00 
6.2466667e+00 5.9700000e+00 0.0000000e+00 
6.2466667e+00 5.9900000e+00 0.0000000e+00 
6.2466667e+00 6.0100000e+00 0.0000000e+00 
6.2466667e+00 6.0300000e+00 0.0000000e+00 
6.2733333e+00 5.9700000e+00 0.0000000e+00 
6.2733333e+00 5.9900000e+00 0.0000000e+00 
6.2733333e+00 6.0100000e+00 0.0000000e+00 
6.2733333e+00 6.0300000e+00 0.0000000e+00 
6.3000000e+00 5.9700000e+00 0.0000000e+00 
6.3000000e+00 5.9900000e+00 0.0000000e+00 
6.3000000e+00 6.0100000e+00 0.0000000e+00 
6.3000000e+00 6.0300000e+00 0.0000000e+00 
6.3266667e+00 5.9700000e+00 0.0000000e+00 
6.3266667e+00 5.9900000e+00 0.0000000e+00 
6.3266667e+00 6.0100000e+00 0.0000000e+00 
6.3266667e+00 6.0300000e+00 0.0000000e+00 
6.3533333e+00 5.9700000e+00 0.0000000e+00 
6.3533333e+00 5.9900000e+00 0.0000000e+00 
6.3533333e+00 6.0100000e+00 0.0000000e+00 
6.3533333e+00 6.0300000e+00 0.0000000e+00 
6.3800000e+00 5.9700000e+00 0.0000000e+00 
6.3800000e+00 5.9900000e+00 0.0000000e+00 
6.3800000e+00 6.0100000e+00 0.0000000e+00 
6.3800000e+00 6.0300000e+00 0.0000000e+00 
6.4066667e+00 5.9700000e+00 0.0000000e+00 
6.4066667e+00 5.9900000e+00 0.0000000e+00 
6.4066667e+00 6.0100000e+00 0.0000000e+00 
6.4066667e+00 6.0300000e+00 0.0000000e+00 
6.4333333e+00 5.9700000e+00 0.0000000e+00 
6.4333333e+00 5.9900000e+00 0.0000000e+00 
6.4333333e+00 6.0100000e+00 0.0000000e+00 
6.4333333e+00 6.0300000e+00 0.0000000e+00 
6.4600000e+00 5.9700000e+00 0.0000000e+00 
6.4600000e+00 5.9900000e+00 0.0000000e+00 
6.4600000e+00 6.0100000e+00 0.0000000e+00 
6.4600000e+00 6.0300000e+00 0.0000000e+00 
6.4866667e+00 5.9700000e+00 0.0000000e+00 
6.4866667e+00 5.9900000e+00 0.0000000e+00 
6.4866667e+00 6.0100000e+00 0.0000000e+00 
6.4866667e+00 6.0300000e+00 0.0000000e+00 
6.5133333e+00 5.9700000e+00 0.0000000e+00 
6.5133333e+00 5.9900000e+00 0.0000000e+00 
6.5133333e+00 6.0100000e+00 0.0000000e+00 
6.5133333e+00 6.0300000e+00 0.0000000e+00 
6.5400000e+00 5.9700000e+00 0.0000000e+00 
6.5400000e+00 5.9900000e+00 0.0000000e+00 
6.5400000e+00 6.0100000e+00 0.0000000e+00 
6.5400000e+00 6.0300000e+00 0.0000000e+00 
6.5666667e+00 5.9700000e+00 0.0000000e+00 
6.5666667e+00 5.9900000e+00 0.0000000e+00 
6.5666667e+00 6.0100000e+00 0.0000000e+00 
6.5666667e+00 6.0300000e+00 0.0000000e+00 
6.5933333e+00 5.9700000e+00 0.0000000e+00 
6.5933333e+00 5.9900000e+00 0.0000000e+00 
6.5933333e+00 6.0100000e+00 0.0000000e+00 
6.5933333e+00 6.0300000e+00 0.0000000e+00 
6.6200000e+00 5.9700000e+00 0.0000000e+00 
6.6200000e+00 5.9900000e+00 0.0000000e+00 
6.6200000e+00 6.0100000e+00 0.0000000e+00 
6.6200000e+00 6.0300000e+00 0.0000000e+00 
6.6466667e+00 5.9700000e+00 0.0000000e+00 
6.6466667e+00 5.9900000e+00 0.0000000e+00 
6.6466667e+00 6.0100000e+00 0.0000000e+00 
6.6466667e+00 6.0300000e+00 0.0000000e+00 
6.6733333e+00 5.9700000e+00 0.0000000e+00 
6.6733333e+00 5.9900000e+00 0.0000000e+00 
6.6733333e+00 6.0100000e+00 0.0000000e+00 
6.6733333e+00 6.0300000e+00 0.0000000e+00 
6.7000000e+00 5.9700000e+00 0.0000000e+00 
6.7000000e+00 5.9900000e+00 0.0000000e+00 
6.7000000e+00 6.0100000e+00 0.0000000e+00 
6.7000000e+00 6.0300000e+00 0.0000000e+00 
6.7266667e+00 5.9700000e+00 0.0000000e+00 
6.7266667e+00 5.9900000e+00 0.0000000e+00 
6.7266667e+00 6.0100000e+00 0.0000000e+00 
6.7266667e+00 6.0300000e+00 0.0000000e+00 
6.7533333e+00 5.9700000e+00 0.0000000e+00 
6.7533333e+00 5.9900000e+00 0.0000000e+00 
6.7533333e+00 6.0100000e+00 0.0000000e+00 
6.7533333e+00 6.0300000e+00 0.0000000e+00 
6.7800000e+00 5.9700000e+00 0.0000000e+00 
6.7800000e+00 5.9900000e+00 0.0000000e+00 
6.7800000e+00 6.0100000e+00 0.0000000e+00 
6.7800000e+00 6.0300000e+00 0.0000000e+00 
6.8066667e+00 5.9700000e+00 0.0000000e+00 
6.8066667e+00 5.9900000e+00 0.0000000e+00 
6.8066667e+00 6.0100000e+00 0.0000000e+00 
6.8066667e+00 6.0300000e+00 0.0000000e+00 
6.8333333e+00 5.9700000e+00 0.0000000e+00 
6.8333333e+00 5.9900000e+00 0.0000000e+00 
6.8333333e+00 6.0100000e+00 0.0000000e+00 
6.8333333e+00 6.0300000e+00 0.0000000e+00 
6.8600000e+00 5.9700000e+00 0.0000000e+00 
6.8600000e+00 5.9900000e+00 0.0000000e+00 
6.8600000e+00 6.0100000e+00 0.0000000e+00 
6.8600000e+00 6.0300000e+00 0.0000000e+00 
6.8866667e+00 5.9700000e+00 0.0000000e+00 
6.8866667e+00 5.9900000e+00 0.0000000e+00 
6.8866667e+00 6.0100000e+00 0.0000000e+00 
6.8866667e+00 6.0300000e+00 0.0000000e+00 
6.9133333e+00 5.9700000e+00 0.0000000e+00 
6.9133333e+00 5.9900000e+00 0.0000000e+00 
6.9133333e+00 6.0100000e+00 0.0000000e+00 
6.9133333e+00 6.0300000e+00 0.0000000e+00 
6.9400000e+00 5.9700000e+00 0.0000000e+00 
6.9400000e+00 5.9900000e+00 0.0000000e+00 
6.9400000e+00 6.0100000e+00 0.0000000e+00 
6.9400000e+00 6.0300000e+00 0.0000000e+00 
6.9666667e+00 5.9700000e+00 0.0000000e+00 
6.9666667e+00 5.9900000e+00 0.0000000e+00 
6.9666667e+00 6.0100000e+00 0.0000000e+00 
6.9666667e+00 6.0300000e+00 0.0000000e+00 
6.9933333e+00 5.9700000e+00 0.0000000e+00 
6.9933333e+00 5.9900000e+00 0.0000000e+00 
6.9933333e+00 6.0100000e+00 0.0000000e+00 
6.9933333e+00 6.0300000e+00 0.0000000e+00 
7.0200000e+00 5.9700000e+00 0.0000000e+00 
7.0200000e+00 5.9900000e+00 0.0000000e+00 
[...]
POINT_DATA 604
FIELD FieldData 2
DISPLACEMENT 3 604  float
0.0000000e+00 0.0000000e+00 0.0000000e+00 
0.0000000e+00 0.0000000e+00 0.0000000e+00 
5.2266778e-06 3.0910892e-06 0.0000000e+00 
1.6252093e-06 2.0090209e-06 0.0000000e+00 
0.0000000e+00 0.0000000e+00 0.0000000e+00 
-1.7641317e-06 2.0416971e-06 0.0000000e+00 
1.0600943e-05 1.0147422e-05 0.0000000e+00 
3.4367010e-06 9.2498877e-06 0.0000000e+00 
0.0000000e+00 0.0000000e+00 0.0000000e+00 
-5.3894045e-06 3.1999999e-06 0.0000000e+00 
-3.7482387e-06 9.2878477e-06 0.0000000e+00 
1.5943672e-05 2.2176516e-05 0.0000000e+00 
-1.0916525e-05 1.0255494e-05 0.0000000e+00 
5.1468992e-06 2.1262739e-05 0.0000000e+00 
-5.6292678e-06 2.1296351e-05 0.0000000e+00 
-1.6426109e-05 2.2277937e-05 0.0000000e+00 
2.1241588e-05 3.8995909e-05 0.0000000e+00 
6.8564931e-06 3.8088281e-05 0.0000000e+00 
-7.5128975e-06 3.8119507e-05 0.0000000e+00 
-2.1899031e-05 3.9089715e-05 0.0000000e+00 
2.6498947e-05 6.0588293e-05 0.0000000e+00 
8.5484385e-06 5.9684314e-05 0.0000000e+00 
-9.3858860e-06 5.9712693e-05 0.0000000e+00 
-2.7337876e-05 6.0673629e-05 0.0000000e+00 
3.1713627e-05 8.6918804e-05 0.0000000e+00 
1.0223401e-05 8.6018123e-05 0.0000000e+00 
-1.1250614e-05 8.6043075e-05 0.0000000e+00 
-3.2742650e-05 8.6993768e-05 0.0000000e+00 
3.6884365e-05 1.1795316e-04 0.0000000e+00 
1.1880231e-05 1.1705531e-04 0.0000000e+00 
-1.3107557e-05 1.1707624e-04 0.0000000e+00 
-3.8113678e-05 1.1801610e-04 0.0000000e+00 
4.2009737e-05 1.5365667e-04 0.0000000e+00 
1.3517989e-05 1.5276111e-04 0.0000000e+00 
-1.4957343e-05 1.5277743e-04 0.0000000e+00 
-4.3451378e-05 1.5370572e-04 0.0000000e+00 
4.7088551e-05 1.9399393e-04 0.0000000e+00 
1.5135694e-05 1.9310027e-04 0.0000000e+00 
-1.6800623e-05 1.9311147e-04 0.0000000e+00 
-4.8755942e-05 1.9402764e-04 0.0000000e+00 
5.2119455e-05 2.3892947e-04 0.0000000e+00 
1.6732431e-05 2.3803717e-04 0.0000000e+00 
-1.8637989e-05 2.3804266e-04 0.0000000e+00 
-5.4027761e-05 2.3894599e-04 0.0000000e+00 
5.7101319e-05 2.8842699e-04 0.0000000e+00 
1.8307274e-05 2.8753570e-04 0.0000000e+00 
-2.0470055e-05 2.8753500e-04 0.0000000e+00 
-5.9267027e-05 2.8842501e-04 0.0000000e+00 
6.2032871e-05 3.4245022e-04 0.0000000e+00 
1.9859355e-05 3.4155940e-04 0.0000000e+00 
-2.2297384e-05 3.4155195e-04 0.0000000e+00 
-6.4474094e-05 3.4242790e-04 0.0000000e+00 
6.6913037e-05 4.0096199e-04 0.0000000e+00 
2.1387806e-05 4.0007134e-04 0.0000000e+00 
-2.4120551e-05 4.0005669e-04 0.0000000e+00 
-6.9649156e-05 4.0091817e-04 0.0000000e+00 
7.1740634e-05 4.6392532e-04 0.0000000e+00 
2.2891815e-05 4.6303429e-04 0.0000000e+00 
-2.5940086e-05 4.6301189e-04 0.0000000e+00 
-7.4792546e-05 4.6385817e-04 0.0000000e+00 
7.6514638e-05 5.3130221e-04 0.0000000e+00 
2.4370579e-05 5.3041052e-04 0.0000000e+00 
-2.7756522e-05 5.3038000e-04 0.0000000e+00 
-7.9904483e-05 5.3121070e-04 0.0000000e+00 
8.1234028e-05 6.0305483e-04 0.0000000e+00 
2.5823285e-05 6.0216209e-04 0.0000000e+00 
-2.9570433e-05 6.0212297e-04 0.0000000e+00 
-8.4985237e-05 6.0293756e-04 0.0000000e+00 
8.5897829e-05 6.7914500e-04 0.0000000e+00 
2.7249258e-05 6.7825068e-04 0.0000000e+00 
-3.1382255e-05 6.7820244e-04 0.0000000e+00 
-9.0035100e-05 6.7900025e-04 0.0000000e+00 
9.0505155e-05 7.5953378e-04 0.0000000e+00 
2.8647797e-05 7.5863764e-04 0.0000000e+00 
-3.3192480e-05 7.5857989e-04 0.0000000e+00 
-9.5054327e-05 7.5936060e-04 0.0000000e+00 
9.5055133e-05 8.4418258e-04 0.0000000e+00 
3.0018228e-05 8.4328411e-04 0.0000000e+00 
-3.5001584e-05 8.4321638e-04 0.0000000e+00 
-1.0004319e-04 8.4397937e-04 0.0000000e+00 
9.9546938e-05 9.3305196e-04 0.0000000e+00 
3.1359915e-05 9.3215093e-04 0.0000000e+00 
-3.6810020e-05 9.3207287e-04 0.0000000e+00 
-1.0500198e-04 9.3281784e-04 0.0000000e+00 
1.0397981e-04 1.0261028e-03 0.0000000e+00 
3.2672242e-05 1.0251988e-03 0.0000000e+00 
-3.8618236e-05 1.0251099e-03 0.0000000e+00 
-1.0993094e-04 1.0258363e-03 0.0000000e+00 
1.0835299e-04 1.1232954e-03 0.0000000e+00 
3.3954636e-05 1.1223880e-03 0.0000000e+00 
-4.0426642e-05 1.1222881e-03 0.0000000e+00 
-1.1483036e-04 1.1229955e-03 0.0000000e+00 
1.1266580e-04 1.2245900e-03 0.0000000e+00 
3.5206532e-05 1.2236790e-03 0.0000000e+00 
-4.2235657e-05 1.2235675e-03 0.0000000e+00 
-1.1970047e-04 1.2242555e-03 0.0000000e+00 
1.1691753e-04 1.3299465e-03 0.0000000e+00 
3.6427397e-05 1.3290315e-03 0.0000000e+00 
-4.4045658e-05 1.3289082e-03 0.0000000e+00 
-1.2454155e-04 1.3295765e-03 0.0000000e+00 
1.2110753e-04 1.4393248e-03 0.0000000e+00 
3.7616714e-05 1.4384056e-03 0.0000000e+00 
-4.5857031e-05 1.4382701e-03 0.0000000e+00 
-1.2935377e-04 1.4389182e-03 0.0000000e+00 
1.2523516e-04 1.5526846e-03 0.0000000e+00 
3.8773993e-05 1.5517608e-03 0.0000000e+00 
-4.7670120e-05 1.5516128e-03 0.0000000e+00 
-1.3413743e-04 1.5522404e-03 0.0000000e+00 
1.2929985e-04 1.6699853e-03 0.0000000e+00 
3.9898759e-05 1.6690566e-03 0.0000000e+00 
-4.9485276e-05 1.6688957e-03 0.0000000e+00 
-1.3889267e-04 1.6695025e-03 0.0000000e+00 
1.3330100e-04 1.7911861e-03 0.0000000e+00 
4.0990574e-05 1.7902524e-03 0.0000000e+00 
-5.1302809e-05 1.7900784e-03 0.0000000e+00 
-1.4361972e-04 1.7906640e-03 0.0000000e+00 
1.3723809e-04 1.9162463e-03 0.0000000e+00 
4.2049005e-05 1.9153072e-03 0.0000000e+00 
-5.3123035e-05 1.9151198e-03 0.0000000e+00 
-1.4831875e-04 1.9156839e-03 0.0000000e+00 
1.4111056e-04 2.0451248e-03 0.0000000e+00 
4.3073647e-05 2.0441801e-03 0.0000000e+00 
-5.4946230e-05 2.0439790e-03 0.0000000e+00 
-1.5298998e-04 2.0445214e-03 0.0000000e+00 
1.4491791e-04 2.1777803e-03 0.0000000e+00 
4.4064098e-05 2.1768299e-03 0.0000000e+00 
-5.6772682e-05 2.1766149e-03 0.0000000e+00 
-1.5763348e-04 2.1771351e-03 0.0000000e+00 
1.4865967e-04 2.3141717e-03 0.0000000e+00 
4.5019999e-05 2.3132152e-03 0.0000000e+00 
-5.8602626e-05 2.3129860e-03 0.0000000e+00 
-1.6224940e-04 2.3134839e-03 0.0000000e+00 
1.5233536e-04 2.4542572e-03 0.0000000e+00 
4.5941005e-05 2.4532946e-03 0.0000000e+00 
-6.0436296e-05 2.4530509e-03 0.0000000e+00 
-1.6683790e-04 2.4535262e-03 0.0000000e+00 
1.5594454e-04 2.5979954e-03 0.0000000e+00 
4.6826776e-05 2.5970263e-03 0.0000000e+00 
-6.2273924e-05 2.5967681e-03 0.0000000e+00 
-1.7139905e-04 2.5972205e-03 0.0000000e+00 
1.5948678e-04 2.7453443e-03 0.0000000e+00 
4.7677007e-05 2.7443687e-03 0.0000000e+00 
-6.4115715e-05 2.7440956e-03 0.0000000e+00 
-1.7593297e-04 2.7445250e-03 0.0000000e+00 
1.6296174e-04 2.8962621e-03 0.0000000e+00 
4.8491400e-05 2.8952797e-03 0.0000000e+00 
-6.5961870e-05 2.8949916e-03 0.0000000e+00 
-1.8043979e-04 2.8953977e-03 0.0000000e+00 
1.6636903e-04 3.0507067e-03 0.0000000e+00 
4.9269692e-05 3.0497174e-03 0.0000000e+00 
-6.7812575e-05 3.0494141e-03 0.0000000e+00 
-1.8491960e-04 3.0497968e-03 0.0000000e+00 
1.6970833e-04 3.2086359e-03 0.0000000e+00 
5.0011625e-05 3.2076396e-03 0.0000000e+00 
-6.9668002e-05 3.2073210e-03 0.0000000e+00 
-1.8937247e-04 3.2076799e-03 0.0000000e+00 
1.7297932e-04 3.3700074e-03 0.0000000e+00 
5.0716962e-05 3.3690040e-03 0.0000000e+00 
-7.1528302e-05 3.3686699e-03 0.0000000e+00 
-1.9379851e-04 3.3690051e-03 0.0000000e+00 
1.7618170e-04 3.5347789e-03 0.0000000e+00 
5.1385486e-05 3.5337682e-03 0.0000000e+00 
-7.3393625e-05 3.5334186e-03 0.0000000e+00 
-1.9819775e-04 3.5337297e-03 0.0000000e+00 
1.7931522e-04 3.7029080e-03 0.0000000e+00 
5.2017000e-05 3.7018899e-03 0.0000000e+00 
-7.5264109e-05 3.7015245e-03 0.0000000e+00 
-2.0257027e-04 3.7018116e-03 0.0000000e+00 
1.8237965e-04 3.8743519e-03 0.0000000e+00 
5.2611331e-05 3.8733264e-03 0.0000000e+00 
-7.7139879e-05 3.8729452e-03 0.0000000e+00 
-2.0691620e-04 3.8732080e-03 0.0000000e+00 
1.8537482e-04 4.0490683e-03 0.0000000e+00 
5.3168324e-05 4.0480352e-03 0.0000000e+00 
-7.9021069e-05 4.0476381e-03 0.0000000e+00 
-2.1123558e-04 4.0478766e-03 0.0000000e+00 
1.8830057e-04 4.2270144e-03 0.0000000e+00 
5.3687853e-05 4.2259737e-03 0.0000000e+00 
-8.0907788e-05 4.2255605e-03 0.0000000e+00 
-2.1552858e-04 4.2257747e-03 0.0000000e+00 
1.9115683e-04 4.4081476e-03 0.0000000e+00 
5.4169803e-05 4.4070992e-03 0.0000000e+00 
-8.2800154e-05 4.4066700e-03 0.0000000e+00 
-2.1979525e-04 4.4068598e-03 0.0000000e+00 
1.9394350e-04 4.5924253e-03 0.0000000e+00 
5.4614088e-05 4.5913692e-03 0.0000000e+00 
-8.4698295e-05 4.5909238e-03 0.0000000e+00 
-2.2403575e-04 4.5910891e-03 0.0000000e+00 
1.9666058e-04 4.7798049e-03 0.0000000e+00 
5.5020655e-05 4.7787409e-03 0.0000000e+00 
-8.6602306e-05 4.7782794e-03 0.0000000e+00 
-2.2825030e-04 4.7784202e-03 0.0000000e+00 
1.9930818e-04 4.9702440e-03 0.0000000e+00 
5.5389472e-05 4.9691721e-03 0.0000000e+00 
-8.8512312e-05 4.9686944e-03 0.0000000e+00 
-2.3243903e-04 4.9688107e-03 0.0000000e+00 
2.0188633e-04 5.1637001e-03 0.0000000e+00 
5.5720544e-05 5.1626203e-03 0.0000000e+00 
-9.0428415e-05 5.1621264e-03 0.0000000e+00 
-2.3660223e-04 5.1622181e-03 0.0000000e+00 
2.0439524e-04 5.3601312e-03 0.0000000e+00 
5.6013875e-05 5.3590434e-03 0.0000000e+00 
-9.2350738e-05 5.3585333e-03 0.0000000e+00 
-2.4074008e-04 5.3586006e-03 0.0000000e+00 
2.0683506e-04 5.5594953e-03 0.0000000e+00 
5.6269516e-05 5.5583995e-03 0.0000000e+00 
-9.4279380e-05 5.5578731e-03 0.0000000e+00 
-2.4485289e-04 5.5579159e-03 0.0000000e+00 
2.0920606e-04 5.7617505e-03 0.0000000e+00 
5.6487521e-05 5.7606466e-03 0.0000000e+00 
-9.6214474e-05 5.7601041e-03 0.0000000e+00 
-2.4894089e-04 5.7601226e-03 0.0000000e+00 
2.1150850e-04 5.9668554e-03 0.0000000e+00 
5.6667988e-05 5.9657434e-03 0.0000000e+00 
-9.8156119e-05 5.9651846e-03 0.0000000e+00 
-2.5300450e-04 5.9651788e-03 0.0000000e+00 
2.1374276e-04 6.1747688e-03 0.0000000e+00 
5.6811019e-05 6.1736487e-03 0.0000000e+00 
-1.0010444e-04 6.1730737e-03 0.0000000e+00 
-2.5704400e-04 6.1730437e-03 0.0000000e+00 
2.1590915e-04 6.3854497e-03 0.0000000e+00 
5.6916758e-05 6.3843214e-03 0.0000000e+00 
-1.0205953e-04 6.3837303e-03 0.0000000e+00 
-2.6105973e-04 6.3836760e-03 0.0000000e+00 
2.1800817e-04 6.5988575e-03 0.0000000e+00 
5.6985340e-05 6.5977210e-03 0.0000000e+00 
-1.0402150e-04 6.5971138e-03 0.0000000e+00 
-2.6505206e-04 6.5970356e-03 0.0000000e+00 
2.2004014e-04 6.8149522e-03 0.0000000e+00 
5.7016951e-05 6.8138074e-03 0.0000000e+00 
-1.0599044e-04 6.8131841e-03 0.0000000e+00 
-2.6902134e-04 6.8130819e-03 0.0000000e+00 
2.2200560e-04 7.0336935e-03 0.0000000e+00 
5.7011759e-05 7.0325406e-03 0.0000000e+00 
-1.0796645e-04 7.0319013e-03 0.0000000e+00 
-2.7296794e-04 7.0317754e-03 0.0000000e+00 
2.2390500e-04 7.2550425e-03 0.0000000e+00 
5.6969985e-05 7.2538811e-03 0.0000000e+00 
-1.0994960e-04 7.2532258e-03 0.0000000e+00 
-2.7689226e-04 7.2530763e-03 0.0000000e+00 
2.2573891e-04 7.4789595e-03 0.0000000e+00 
5.6891842e-05 7.4777900e-03 0.0000000e+00 
-1.1193998e-04 7.4771188e-03 0.0000000e+00 
-2.8079469e-04 7.4769458e-03 0.0000000e+00 
2.2750782e-04 7.7054063e-03 0.0000000e+00 
5.6777504e-05 7.7042285e-03 0.0000000e+00 
-1.1393771e-04 7.7035416e-03 0.0000000e+00 
-2.8467558e-04 7.7033452e-03 0.0000000e+00 
2.2921224e-04 7.9343447e-03 0.0000000e+00 
5.6627250e-05 7.9331585e-03 0.0000000e+00 
-1.1594281e-04 7.9324557e-03 0.0000000e+00 
-2.8853529e-04 7.9322361e-03 0.0000000e+00 
2.3085271e-04 8.1657364e-03 0.0000000e+00 
5.6441314e-05 8.1645420e-03 0.0000000e+00 
-1.1795531e-04 8.1638236e-03 0.0000000e+00 
-2.9237417e-04 8.1635809e-03 0.0000000e+00 
2.3242973e-04 8.3995444e-03 0.0000000e+00 
5.6219933e-05 8.3983416e-03 0.0000000e+00 
-1.1997525e-04 8.3976075e-03 0.0000000e+00 
-2.9619247e-04 8.3973418e-03 0.0000000e+00 
2.3394381e-04 8.6357311e-03 0.0000000e+00 
5.5963348e-05 8.6345201e-03 0.0000000e+00 
-1.2200266e-04 8.6337705e-03 0.0000000e+00 
-2.9999050e-04 8.6334821e-03 0.0000000e+00 
2.3539548e-04 8.8742601e-03 0.0000000e+00 
5.5671804e-05 8.8730408e-03 0.0000000e+00 
-1.2403754e-04 8.8722757e-03 0.0000000e+00 
-3.0376854e-04 8.8719646e-03 0.0000000e+00 
2.3678519e-04 9.1150946e-03 0.0000000e+00 
5.5345540e-05 9.1138672e-03 0.0000000e+00 
-1.2607989e-04 9.1130868e-03 0.0000000e+00 
-3.0752683e-04 9.1127533e-03 0.0000000e+00 
2.3811338e-04 9.3581988e-03 0.0000000e+00 
5.4984794e-05 9.3569631e-03 0.0000000e+00 
-1.2812968e-04 9.3561675e-03 0.0000000e+00 
-3.1126552e-04 9.3558116e-03 0.0000000e+00 
2.3938050e-04 9.6035364e-03 0.0000000e+00 
5.4589790e-05 9.6022927e-03 0.0000000e+00 
-1.3018687e-04 9.6014819e-03 0.0000000e+00 
-3.1498476e-04 9.6011039e-03 0.0000000e+00 
2.4058688e-04 9.8510722e-03 0.0000000e+00 
5.4160759e-05 9.8498203e-03 0.0000000e+00 
-1.3225139e-04 9.8489945e-03 0.0000000e+00 
-3.1868465e-04 9.8485944e-03 0.0000000e+00 
2.4173291e-04 1.0100770e-02 0.0000000e+00 
5.3697920e-05 1.0099510e-02 0.0000000e+00 
-1.3432318e-04 1.0098670e-02 0.0000000e+00 
-3.2236525e-04 1.0098248e-02 0.0000000e+00 
2.4281898e-04 1.0352596e-02 0.0000000e+00 
5.3201499e-05 1.0351328e-02 0.0000000e+00 
-1.3640213e-04 1.0350472e-02 0.0000000e+00 
-3.2602664e-04 1.0350029e-02 0.0000000e+00 
2.4384543e-04 1.0606513e-02 0.0000000e+00 
5.2671733e-05 1.0605238e-02 0.0000000e+00 
-1.3848815e-04 1.0604367e-02 0.0000000e+00 
-3.2966883e-04 1.0603902e-02 0.0000000e+00 
2.4481258e-04 1.0862488e-02 0.0000000e+00 
5.2108853e-05 1.0861204e-02 0.0000000e+00 
-1.4058112e-04 1.0860320e-02 0.0000000e+00 
-3.3329179e-04 1.0859833e-02 0.0000000e+00 
2.4572076e-04 1.1120484e-02 0.0000000e+00 
5.1513096e-05 1.1119194e-02 0.0000000e+00 
-1.4268088e-04 1.1118295e-02 0.0000000e+00 
-3.3689552e-04 1.1117787e-02 0.0000000e+00 
2.4657032e-04 1.1380469e-02 0.0000000e+00 
5.0884605e-05 1.1379171e-02 0.0000000e+00 
-1.4478739e-04 1.1378258e-02 0.0000000e+00 
-3.4047992e-04 1.1377729e-02 0.0000000e+00 
2.4736151e-04 1.1642406e-02 0.0000000e+00 
5.0223697e-05 1.1641101e-02 0.0000000e+00 
-1.4690042e-04 1.1640174e-02 0.0000000e+00 
-3.4404497e-04 1.1639624e-02 0.0000000e+00 
2.4809466e-04 1.1906262e-02 0.0000000e+00 
4.9530579e-05 1.1904950e-02 0.0000000e+00 
-1.4901980e-04 1.1904009e-02 0.0000000e+00 
-3.4759057e-04 1.1903439e-02 0.0000000e+00 
2.4877005e-04 1.2172003e-02 0.0000000e+00 
4.8805485e-05 1.2170683e-02 0.0000000e+00 
-1.5114538e-04 1.2169728e-02 0.0000000e+00 
-3.5111656e-04 1.2169137e-02 0.0000000e+00 
2.4938796e-04 1.2439592e-02 0.0000000e+00 
4.8048659e-05 1.2438266e-02 0.0000000e+00 
-1.5327696e-04 1.2437298e-02 0.0000000e+00 
-3.5462282e-04 1.2436687e-02 0.0000000e+00 
2.4994872e-04 1.2708998e-02 0.0000000e+00 
4.7260343e-05 1.2707665e-02 0.0000000e+00 
-1.5541432e-04 1.2706683e-02 0.0000000e+00 
-3.5810919e-04 1.2706052e-02 0.0000000e+00 
2.5045257e-04 1.2980185e-02 0.0000000e+00 
4.6440805e-05 1.2978845e-02 0.0000000e+00 
-1.5755730e-04 1.2977850e-02 0.0000000e+00 
-3.6157552e-04 1.2977199e-02 0.0000000e+00 
2.5089994e-04 1.3253119e-02 0.0000000e+00 
4.5590308e-05 1.3251773e-02 0.0000000e+00 
-1.5970566e-04 1.3250765e-02 0.0000000e+00 
-3.6502168e-04 1.3250094e-02 0.0000000e+00 
2.5129112e-04 1.3527766e-02 0.0000000e+00 
4.4709127e-05 1.3526414e-02 0.0000000e+00 
-1.6185921e-04 1.3525393e-02 0.0000000e+00 
-3.6844753e-04 1.3524702e-02 0.0000000e+00 
2.5162645e-04 1.3804092e-02 0.0000000e+00 
4.3797544e-05 1.3802734e-02 0.0000000e+00 
-1.6401772e-04 1.3801700e-02 0.0000000e+00 
-3.7185290e-04 1.3800990e-02 0.0000000e+00 
2.5190627e-04 1.4082063e-02 0.0000000e+00 
4.2855814e-05 1.4080700e-02 0.0000000e+00 
-1.6618099e-04 1.4079653e-02 0.0000000e+00 
-3.7523766e-04 1.4078924e-02 0.0000000e+00 
2.5213089e-04 1.4361646e-02 0.0000000e+00 
4.1884236e-05 1.4360277e-02 0.0000000e+00 
-1.6834879e-04 1.4359218e-02 0.0000000e+00 
-3.7860158e-04 1.4358470e-02 0.0000000e+00 
2.5230066e-04 1.4642807e-02 0.0000000e+00 
4.0883116e-05 1.4641432e-02 0.0000000e+00 
-1.7052086e-04 1.4640361e-02 0.0000000e+00 
-3.8194457e-04 1.4639594e-02 0.0000000e+00 
2.5241605e-04 1.4925511e-02 0.0000000e+00 
3.9852773e-05 1.4924131e-02 0.0000000e+00 
-1.7269696e-04 1.4923048e-02 0.0000000e+00 
-3.8526636e-04 1.4922263e-02 0.0000000e+00 
2.5247733e-04 1.5209726e-02 0.0000000e+00 
3.8793592e-05 1.5208341e-02 0.0000000e+00 
-1.7487679e-04 1.5207246e-02 0.0000000e+00 
-3.8856691e-04 1.5206443e-02 0.0000000e+00 
2.5248509e-04 1.5495418e-02 0.0000000e+00 
3.7705726e-05 1.5494027e-02 0.0000000e+00 
-1.7706028e-04 1.5492922e-02 0.0000000e+00 
-3.9184587e-04 1.5492100e-02 0.0000000e+00 
2.5243977e-04 1.5782553e-02 0.0000000e+00 
3.6589719e-05 1.5781158e-02 0.0000000e+00 
-1.7924700e-04 1.5780041e-02 0.0000000e+00 
-3.9510316e-04 1.5779202e-02 0.0000000e+00 
2.5234179e-04 1.6071099e-02 0.0000000e+00 
3.5445951e-05 1.6069700e-02 0.0000000e+00 
-1.8143669e-04 1.6068572e-02 0.0000000e+00 
-3.9833874e-04 1.6067715e-02 0.0000000e+00 
2.5219182e-04 1.6361023e-02 0.0000000e+00 
3.4274785e-05 1.6359619e-02 0.0000000e+00 
-1.8362912e-04 1.6358480e-02 0.0000000e+00 
-4.0155229e-04 1.6357606e-02 0.0000000e+00 
2.5199027e-04 1.6652291e-02 0.0000000e+00 
3.3076631e-05 1.6650883e-02 0.0000000e+00 
-1.8582401e-04 1.6649733e-02 0.0000000e+00 
-4.0474387e-04 1.6648842e-02 0.0000000e+00 
2.5173780e-04 1.6944872e-02 0.0000000e+00 
3.1851863e-05 1.6943460e-02 0.0000000e+00 
-1.8802109e-04 1.6942299e-02 0.0000000e+00 
-4.0791319e-04 1.6941391e-02 0.0000000e+00 
2.5143474e-04 1.7238732e-02 0.0000000e+00 
3.0600906e-05 1.7237316e-02 0.0000000e+00 
-1.9022010e-04 1.7236146e-02 0.0000000e+00 
-4.1106022e-04 1.7235221e-02 0.0000000e+00 
2.5108181e-04 1.7533840e-02 0.0000000e+00 
2.9324127e-05 1.7532420e-02 0.0000000e+00 
-1.9242073e-04 1.7531239e-02 0.0000000e+00 
-4.1418459e-04 1.7530298e-02 0.0000000e+00 
2.5067931e-04 1.7830163e-02 0.0000000e+00 
2.8021989e-05 1.7828739e-02 0.0000000e+00 
-1.9462264e-04 1.7827549e-02 0.0000000e+00 
-4.1728634e-04 1.7826592e-02 0.0000000e+00 
2.5022792e-04 1.8127669e-02 0.0000000e+00 
2.6694872e-05 1.8126242e-02 0.0000000e+00 
-1.9682553e-04 1.8125042e-02 0.0000000e+00 
-4.2036489e-04 1.8124069e-02 0.0000000e+00 
2.4972794e-04 1.8426326e-02 0.0000000e+00 
2.5343166e-05 1.8424896e-02 0.0000000e+00 
-1.9902905e-04 1.8423687e-02 0.0000000e+00 
-4.2342025e-04 1.8422698e-02 0.0000000e+00 
2.4917997e-04 1.8726103e-02 0.0000000e+00 
2.3967235e-05 1.8724670e-02 0.0000000e+00 
-2.0123287e-04 1.8723452e-02 0.0000000e+00 
-4.2645193e-04 1.8722447e-02 0.0000000e+00 
2.4858415e-04 1.9026967e-02 0.0000000e+00 
2.2567548e-05 1.9025532e-02 0.0000000e+00 
-2.0343661e-04 1.9024304e-02 0.0000000e+00 
-4.2945980e-04 1.9023285e-02 0.0000000e+00 
2.4794133e-04 1.9328888e-02 0.0000000e+00 
2.1144468e-05 1.9327450e-02 0.0000000e+00 
-2.0563993e-04 1.9326213e-02 0.0000000e+00 
-4.3244326e-04 1.9325178e-02 0.0000000e+00 
2.4725160e-04 1.9631832e-02 0.0000000e+00 
1.9698521e-05 1.9630392e-02 0.0000000e+00 
-2.0784229e-04 1.9629147e-02 0.0000000e+00 
-4.3540232e-04 1.9628097e-02 0.0000000e+00 
2.4651566e-04 1.9935769e-02 0.0000000e+00 
1.8229992e-05 1.9934326e-02 0.0000000e+00 
-2.1004348e-04 1.9933073e-02 0.0000000e+00 
-4.3833615e-04 1.9932009e-02 0.0000000e+00 
2.4573408e-04 2.0240666e-02 0.0000000e+00 
1.6739452e-05 2.0239222e-02 0.0000000e+00 
-2.1224296e-04 2.0237960e-02 0.0000000e+00 
-4.4124444e-04 2.0236881e-02 0.0000000e+00 
2.4490710e-04 2.0546493e-02 0.0000000e+00 
1.5227330e-05 2.0545046e-02 0.0000000e+00 
-2.1444028e-04 2.0543777e-02 0.0000000e+00 
-4.4412710e-04 2.0542684e-02 0.0000000e+00 
2.4403533e-04 2.0853217e-02 0.0000000e+00 
1.3693984e-05 2.0851769e-02 0.0000000e+00 
-2.1663511e-04 2.0850492e-02 0.0000000e+00 
-4.4698332e-04 2.0849384e-02 0.0000000e+00 
2.4311885e-04 2.1160807e-02 0.0000000e+00 
1.2139945e-05 2.1159357e-02 0.0000000e+00 
-2.1882689e-04 2.1158072e-02 0.0000000e+00 
-4.4981301e-04 2.1156952e-02 0.0000000e+00 
2.4215852e-04 2.1469231e-02 0.0000000e+00 
1.0565533e-05 2.1467781e-02 0.0000000e+00 
-2.2101520e-04 2.1466488e-02 0.0000000e+00 
-4.5261528e-04 2.1465354e-02 0.0000000e+00 
2.4115427e-04 2.1778458e-02 0.0000000e+00 
8.9712922e-06 2.1777007e-02 0.0000000e+00 
-2.2319958e-04 2.1775707e-02 0.0000000e+00 
-4.5538983e-04 2.1774559e-02 0.0000000e+00 
2.4010694e-04 2.2088456e-02 0.0000000e+00 
7.3575828e-06 2.2087003e-02 0.0000000e+00 
-2.2537963e-04 2.2085697e-02 0.0000000e+00 
-4.5813609e-04 2.2084536e-02 0.0000000e+00 
2.3901674e-04 2.2399192e-02 0.0000000e+00 
5.7248879e-06 2.2397739e-02 0.0000000e+00 