# vtk DataFile Version 4.0
vtk output
ASCII
DATASET UNSTRUCTURED_GRID
POINTS 604 float
5.5000000e+00 5.9700000e+00 0.0000000e+00 
5.5000000e+00 5.9900000e+00 0.0000000e+00 
5.5266667e+00 5.9700000e+00 0.0000000e+00 
5.5266667e+00 5.9900000e+00 0.0000000e+00 
5.5000000e+00 6.0100000e+00 0.0000000e+00 
5.5266667e+00 6.0100000e+00 0.0000000e+00 
5.5533333e+00 5.9700000e+00 0.0000000e+00 
5.5533333e+00 5.9900000e+00 0.0000000e+00 
5.5000000e+00 6.0300000e+00 0.0000000e+00 
5.5266667e+00 6.0300000e+00 0.0000000e+00 
5.5533333e+00 6.0100000e+00 0.0000000e+00 
5.5800000e+00 5.9700000e+00 0.0000000e+00 
5.5533333e+00 6.0300000e+00 0.0000000e+00 
5.5800000e+00 5.9900000e+00 0.0000000e+00 
5.5800000e+00 6.0100000e+00 0.0000000e+00 
5.5800000e+00 6.0300000e+00 0.0000000e+00 
5.6066667e+00 5.9700000e+00 0.0000000e+00 
5.6066667e+00 5.9900000e+00 0.0000000e+00 
5.6066667e+00 6.0100000e+00 0.0000000e+00 
5.6066667e+00 6.0300000e+00 0.0000000e+00 
5.6333333e+00 5.9700000e+00 0.0000000e+00 
5.6333333e+00 5.9900000e+00 0.0000000e+00 
5.6333333e+00 6.0100000e+00 0.0000000e+00 
5.6333333e+00 6.0300000e+00 0.0000000e+00 
5.6600000e+00 5.9700000e+00 0.0000000e+00 
5.6600000e+00 5.9900000e+00 0.0000000e+00 
5.6600000e+00 6.0100000e+00 0.0000000e+00 
5.6600000e+00 6.0300000e+00 0.0000000e+00 
5.6866667e+00 5.9700000e+00 0.0000000e+00 
5.6866667e+00 5.9900000e+00 0.0000000e+00 
5.6866667e+00 6.0100000e+00 0.0000000e+00 
5.6866667e+00 6.0300000e+00 0.0000000e+00 
5.7133333e+00 5.9700000e+00 0.0000000e+00 
5.7133333e+00 5.9900000e+00 0.0000000e+00 
5.7133333e+00 6.0100000e+00 0.0000000e+00 
5.7133333e+00 6.0300000e+00 0.0000000e+00 
5.7400000e+00 5.9700000e+00 0.0000000e+00 
5.7400000e+00 5.9900000e+00 0.0000000e+00 
5.7400000e+00 6.0100000e+00 0.0000000e+00 
5.7400000e+00 6.0300000e+00 0.0000000e+00 
5.7666667e+00 5.9700000e+00 0.0000000e+00 
5.7666667e+00 5.9900000e+00 0.0000000e+00 
5.7666667e+00 6.0100000e+00 0.0000000e+00 
5.7666667e+00 6.0300000e+00 0.0000000e+00 
5.7933333e+00 5.9700000e+00 0.0000000e+00 
5.7933333e+00 5.9900000e+00 0.0000000e+00 
5.7933333e+00 6.0100000e+00 0.0000000e+00 
5.7933333e+00 6.0300000e+00 0.0000000e+00 
5.8200000e+00 5.9700000e+00 0.0000000e+00 
5.8200000e+00 5.9900000e+00 0.0000000e+00 
5.8200000e+00 6.0100000e+00 0.0000000e+00 
5.8200000e+00 6.0300000e+00 0.0000000e+00 
5.8466667e+00 5.9700000e+00 0.0000000e+00 
5.8466667e+00 5.9900000e+00 0.0000000e+00 
5.8466667e+00 6.0100000e+00 0.0000000e+00 
5.8466667e+00 6.0300000e+00 0.0000000e+00 
5.8733333e+00 5.9700000e+00 0.0000000e+00 
5.8733333e+00 5.9900000e+00 0.0000000e+00 
5.8733333e+00 6.0100000e+00 0.0000000e+00 
5.8733333e+00 6.0300000e+00 0.0000000e+00 
5.9000000e+00 5.9700000e+00 0.0000000e+00 
5.9000000e+00 5.9900000e+00 0.0000000e+00 
5.9000000e+00 6.0100000e+00 0.0000000e+00 
5.9000000e+00 6.0300000e+00 0.0000000e+00 
5.9266667e+00 5.9700000e+00 0.0000000e+00 
5.9266667e+00 5.9900000e+00 0.0000000e+00 
5.9266667e+00 6.0100000e+00 0.0000000e+00 
5.9266667e+00 6.0300000e+00 0.0000000e+00 
5.9533333e+00 5.9700000e+00 0.0000000e+00 
5.9533333e+00 5.9900000e+00 0.0000000e+00 
5.9533333e+00 6.0100000e+00 0.0000000e+00 
5.9533333e+00 6.0300000e+00 0.0000000e+00 
5.9800000e+00 5.9700000e+00 0.0000000e+00 
5.9800000e+00 5.9900000e+00 0.0000000e+00 
5.9800000e+00 6.0100000e+00 0.0000000e+00 
5.9800000e+00 6.0300000e+00 0.0000000e+00 
6.0066667e+00 5.9700000e+00 0.0000000e+00 
6.0066667e+00 5.9900000e+00 0.0000000e+00 
6.0066667e+00 6.0100000e+00 0.0000000e+00 
6.0066667e+00 6.0300000e+00 0.0000000e+00 
6.0333333e+00 5.9700000e+00 0.0000000e+00 
6.0333333e+00 5.9900000e+00 0.0000000e+00 
6.0333333e+00 6.0100000e+00 0.0000000e+00 
6.0333333e+00 6.0300000e+00 0.0000000e+00 
6.0600000e+00 5.9700000e+00 0.0000000e+00 
6.0600000e+00 5.9900000e+00 0.0000000e+00 
6.0600000e+00 6.0100000e+00 0.0000000e+00 
6.0600000e+00 6.0300000e+00 0.0000000e+00 
6.0866667e+00 5.9700000e+00 0.0000000e+00 
6.0866667e+00 5.9900000e+00 0.0000000e+00 
6.0866667e+00 6.0100000e+00 0.0000000e+00 
6.0866667e+00 6.0300000e+00 0.0000000e+00 
6.1133333e+00 5.9700000e+00 0.0000000e+00 
6.1133333e+00 5.9900000e+00 0.0000000e+00 
6.1133333e+00 6.0100000e+00 0.0000000e+00 
6.1133333e+00 6.0300000e+00 0.0000000e+00 
6.1400000e+00 5.9700000e+00 0.0000000e+00 
6.1400000e+00 5.9900000e+00 0.0000000e+00 
6.1400000e+00 6.0100000e+00 0.0000000e+00 
6.1400000e+00 6.0300000e+00 0.0000000e+00 
6.1666667e+00 5.9700000e+00 0.0000000e+00 
6.1666667e+00 5.9900000e+00 0.0000000e+00 
6.1666667e+00 6.0100000e+00 0.0000000e+00 
6.1666667e+00 6.0300000e+00 0.0000000e+00 
6.1933333e+00 5.9700000e+00 0.0000000e+00 
6.1933333e+00 5.9900000e+00 0.0000000e+00 
6.1933333e+00 6.0100000e+00 0.0000000e+00 
6.1933333e+00 6.0300000e+00 0.0000000e+00 
6.2200000e+00 5.9700000e+00 0.0000000e+00 
6.2200000e+00 5.9900000e+00 0.0000000e+00 
6.2200000e+00 6.0100000e+00 0.0000000e+00 
6.2200000e+00 6.0300000e+00 0.0000000e+00 
6.2466667e+00 5.9700000e+00 0.0000000e+00 
6.2466667e+00 5.9900000e+00 0.0000000e+00 
6.2466667e+00 6.0100000e+00 0.0000000e+00 
6.2466667e+00 6.0300000e+00 0.0000000e+00 
6.2733333e+00 5.9700000e+00 0.0000000e+00 
6.2733333e+00 5.9900000e+00 0.0000000e+00 
6.2733333e+00 6.0100000e+00 0.0000000e+00 
6.2733333e+00 6.0300000e+00 0.0000000e+00 
6.3000000e+00 5.9700000e+00 0.0000000e+00 
6.3000000e+00 5.9900000e+00 0.0000000e+00 
6.3000000e+00 6.0100000e+00 0.0000000e+00 
6.3000000e+00 6.0300000e+00 0.0000000e+00 
6.3266667e+00 5.9700000e+00 0.0000000e+00 
6.3266667e+00 5.9900000e+00 0.0000000e+00 
6.3266667e+00 6.0100000e+00 0.0000000e+00 
6.3266667e+00 6.0300000e+00 0.0000000e+00 
6.3533333e+00 5.9700000e+00 0.0000000e+00 
6.3533333e+00 5.9900000e+00 0.0000000e+00 
6.3533333e+00 6.0100000e+00 0.0000000e+00 
6.3533333e+00 6.0300000e+00 0.0000000e+00 
6.3800000e+00 5.9700000e+00 0.0000000e+00 
6.3800000e+00 5.9900000e+00 0.0000000e+00 
6.3800000e+00 6.0100000e+00 0.0000000e+00 
6.3800000e+00 6.0300000e+00 0.0000000e+00 
6.4066667e+00 5.9700000e+00 0.0000000e+00 
6.4066667e+00 5.9900000e+00 0.0000000e+00 
6.4066667e+00 6.0100000e+00 0.0000000e+00 
6.4066667e+00 6.0300000e+00 0.0000000e+00 
6.4333333e+00 5.9700000e+00 0.0000000e+00 
6.4333333e+00 5.9900000e+00 0.0000000e+00 
6.4333333e+00 6.0100000e+00 0.0000000e+00 
6.4333333e+00 6.0300000e+00 0.0000000e+00 
6.4600000e+00 5.9700000e+00 0.0000000e+00 
6.4600000e+00 5.9900000e+00 0.0000000e+00 
6.4600000e+00 6.0100000e+00 0.0000000e+00 
6.4600000e+00 6.0300000e+00 0.0000000e+00 
6.4866667e+00 5.9700000e+00 0.0000000e+00 
6.4866667e+00 5.9900000e+00 0.0000000e+00 
6.4866667e+00 6.0100000e+00 0.0000000e+00 
6.4866667e+00 6.0300000e+00 0.0000000e+00 
6.5133333e+00 5.9700000e+00 0.0000000e+00 
6.5133333e+00 5.9900000e+00 0.0000000e+00 
6.5133333e+00 6.0100000e+00 0.0000000e+00 
6.5133333e+00 6.0300000e+00 0.0000000e+00 
6.5400000e+00 5.9700000e+00 0.0000000e+00 
6.5400000e+00 5.9900000e+00 0.0000000e+00 
6.5400000e+00 6.0100000e+00 0.0000000e+00 
6.5400000e+00 6.0300000e+00 0.0000000e+00 
6.5666667e+00 5.9700000e+00 0.0000000e+00 
6.5666667e+00 5.9900000e+00 0.0000000e+00 
6.5666667e+00 6.0100000e+00 0.0000000e+00 
6.5666667e+00 6.0300000e+00 0.0000000e+00 
6.5933333e+00 5.9700000e+00 0.0000000e+00 
6.5933333e+00 5.9900000e+00 0.0000000e+00 
6.5933333e+00 6.0100000e+00 0.0000000e+00 
6.5933333e+00 6.0300000e+00 0.0000000e+00 
6.6200000e+00 5.9700000e+00 0.0000000e+00 
6.6200000e+00 5.9900000e+00 0.0000000e+00 
6.6200000e+00 6.0100000e+00 0.0000000e+00 
6.6200000e+00 6.0300000e+00 0.0000000e+00 
6.6466667e+00 5.9700000e+00 0.0000000e+00 
6.6466667e+00 5.9900000e+00 0.0000000e+00 
6.6466667e+00 6.0100000e+00 0.0000000e+00 
6.6466667e+00 6.0300000e+00 0.0000000e+00 
6.6733333e+00 5.9700000e+00 0.0000000e+00 
6.6733333e+00 5.9900000e+00 0.0000000e+00 
6.6733333e+00 6.0100000e+00 0.0000000e+00 
6.6733333e+00 6.0300000e+00 0.0000000e+00 
6.7000000e+00 5.9700000e+00 0.0000000e+00 
6.7000000e+00 5.9900000e+00 0.0000000e+00 
6.7000000e+00 6.0100000e+00 0.0000000e+00 
6.7000000e+00 6.0300000e+00 0.0000000e+00 
6.7266667e+00 5.9700000e+00 0.0000000e+00 
6.7266667e+00 5.9900000e+00 0.0000000e+00 
6.7266667e+00 6.0100000e+00 0.0000000e+00 
6.7266667e+00 6.0300000e+00 0.0000000e+00 
6.7533333e+00 5.9700000e+00 0.0000000e+00 
6.7533333e+00 5.9900000e+00 0.0000000e+00 
6.7533333e+00 6.0100000e+00 0.0000000e+00 
6.7533333e+00 6.0300000e+00 0.0000000e+00 
6.7800000e+00 5.9700000e+00 0.0000000e+00 
6.7800000e+00 5.9900000e+00 0.0000000e+00 
6.7800000e+00 6.0100000e+00 0.0000000e+00 
6.7800000e+00 6.0300000e+00 0.0000000e+00 
6.8066667e+00 5.9700000e+00 0.0000000e+00 
6.8066667e+00 5.9900000e+00 0.0000000e+00 
6.8066667e+00 6.0100000e+00 0.0000000e+00 
6.8066667e+00 6.0300000e+00 0.0000000e+00 
6.8333333e+00 5.9700000e+00 0.0000000e+00 
6.8333333e+00 5.9900000e+00 0.0000000e+00 
6.8333333e+00 6.0100000e+00 0.0000000e+00 
6.8333333e+00 6.0300000e+00 0.0000000e+00 
6.8600000e+00 5.9700000e+00 0.0000000e+00 
6.8600000e+00 5.9900000e+00 0.0000000e+00 
6.8600000e+00 6.0100000e+00 0.0000000e+00 
6.8600000e+00 6.0300000e+00 0.0000000e+00 
6.8866667e+00 5.9700000e+00 0.0000000e+00 
6.8866667e+00 5.9900000e+00 0.0000000e+00 
6.8866667e+00 6.0100000e+00 0.0000000e+00 
6.8866667e+00 6.0300000e+00 0.0000000e+00 
6.9133333e+00 5.9700000e+00 0.0000000e+00 
6.9133333e+00 5.9900000e+00 0.0000000e+00 
6.9133333e+00 6.0100000e+00 0.0000000e+00 
6.9133333e+00 6.0300000e+00 0.0000000e+00 
6.9400000e+00 5.9700000e+00 0.0000000e+00 
6.9400000e+00 5.9900000e+00 0.0000000e+00 
6.9400000e+00 6.0100000e+00 0.0000000e+00 
6.9400000e+00 6.0300000e+00 0.0000000e+00 
6.9666667e+00 5.9700000e+00 0.0000000e+00 
6.9666667e+00 5.9900000e+00 0.0000000e+00 
6.9666667e+00 6.0100000e+00 0.0000000e+00 
6.9666667e+00 6.0300000e+00 0.0000000e+00 
6.9933333e+00 5.9700000e+00 0.0000000e+00 
6.9933333e+00 5.9900000e+00 0.0000000e+00 
6.9933333e+00 6.0100000e+00 0.0000000e+00 
6.9933333e+00 6.0300000e+00 0.0000000e+00 
7.0200000e+00 5.9700000e+00 0.0000000e+00 
7.0200000e+00 5.9900000e+00 0.0000000e+00 
[...]
POINT_DATA 604
FIELD FieldData 2
DISPLACEMENT 3 604  float
0.0000000e+00 0.0000000e+00 0.0000000e+00 
0.0000000e+00 0.0000000e+00 0.0000000e+00 
-7.7907693e-05 -4.7362006e-05 0.0000000e+00 
-2.4632166e-05 -3.1167330e-05 0.0000000e+00 
0.0000000e+00 0.0000000e+00 0.0000000e+00 
2.4741981e-05 -3.1298069e-05 0.0000000e+00 
-1.5670317e-04 -1.5130948e-04 0.0000000e+00 
-5.2146509e-05 -1.3830201e-04 0.0000000e+00 
0.0000000e+00 0.0000000e+00 0.0000000e+00 
7.7987280e-05 -4.7740839e-05 0.0000000e+00 
5.2048386e-05 -1.3865906e-04 0.0000000e+00 
-2.3420372e-04 -3.2622982e-04 0.0000000e+00 
1.5646835e-04 -1.5233718e-04 0.0000000e+00 
-7.8085983e-05 -3.1355806e-04 0.0000000e+00 
7.7060911e-05 -3.1423856e-04 0.0000000e+00 
2.3296046e-04 -3.2824456e-04 0.0000000e+00 
-3.1035391e-04 -5.6833717e-04 0.0000000e+00 
-1.0414589e-04 -5.5646704e-04 0.0000000e+00 
1.0113471e-04 -5.5759632e-04 0.0000000e+00 
3.0706671e-04 -5.7170570e-04 0.0000000e+00 
-3.8537986e-04 -8.7627317e-04 0.0000000e+00 
-1.3025852e-04 -8.6527830e-04 0.0000000e+00 
1.2390575e-04 -8.6696780e-04 0.0000000e+00 
3.7869669e-04 -8.8132729e-04 0.0000000e+00 
-4.5942435e-04 -1.2484270e-03 0.0000000e+00 
-1.5659290e-04 -1.2384103e-03 0.0000000e+00 
1.4526108e-04 -1.2407613e-03 0.0000000e+00 
4.4771141e-04 -1.2554709e-03 0.0000000e+00 
-5.3262710e-04 -1.6832199e-03 0.0000000e+00 
-1.8327952e-04 -1.6742721e-03 0.0000000e+00 
1.6507192e-04 -1.6773775e-03 0.0000000e+00 
5.1399216e-04 -1.6925322e-03 0.0000000e+00 
-6.0511670e-04 -2.1790789e-03 0.0000000e+00 
-2.1044028e-04 -2.1712832e-03 0.0000000e+00 
1.8322330e-04 -2.1752278e-03 0.0000000e+00 
5.7743023e-04 -2.1909139e-03 0.0000000e+00 
-6.7701056e-04 -2.7344402e-03 0.0000000e+00 
-2.3818629e-04 -2.7278713e-03 0.0000000e+00 
1.9961079e-04 -2.7327320e-03 0.0000000e+00 
6.3792776e-04 -2.7490281e-03 0.0000000e+00 
-7.4841654e-04 -3.3477474e-03 0.0000000e+00 
-2.6661818e-04 -3.3424730e-03 0.0000000e+00 
2.1414039e-04 -3.3483191e-03 0.0000000e+00 
6.9539732e-04 -3.3652961e-03 0.0000000e+00 
-8.1943192e-04 -4.0174540e-03 0.0000000e+00 
-2.9582684e-04 -4.0135338e-03 0.0000000e+00 
2.2672810e-04 -4.0204271e-03 0.0000000e+00 
7.4976171e-04 -4.0381485e-03 0.0000000e+00 
-8.9014527e-04 -4.7420206e-03 0.0000000e+00 
-3.2589337e-04 -4.7395079e-03 0.0000000e+00 
2.3729966e-04 -4.7475032e-03 0.0000000e+00 
8.0095343e-04 -4.7660258e-03 0.0000000e+00 
-9.6063533e-04 -5.5199186e-03 0.0000000e+00 
-3.5688985e-04 -5.5188589e-03 0.0000000e+00 
2.4579017e-04 -5.5280041e-03 0.0000000e+00 
8.4891461e-04 -5.5473774e-03 0.0000000e+00 
-1.0309729e-03 -6.3496264e-03 0.0000000e+00 
-3.8887927e-04 -6.3500595e-03 0.0000000e+00 
2.5214377e-04 -6.3603961e-03 0.0000000e+00 
8.9359650e-04 -6.3806635e-03 0.0000000e+00 
-1.1012196e-03 -7.2296342e-03 0.0000000e+00 
-4.2191627e-04 -7.2315925e-03 0.0000000e+00 
2.5631326e-04 -7.2431553e-03 0.0000000e+00 
9.3495925e-04 -7.2643535e-03 0.0000000e+00 
-1.1714297e-03 -8.1584394e-03 0.0000000e+00 
-4.5604745e-04 -8.1619497e-03 0.0000000e+00 
2.5825979e-04 -8.1747678e-03 0.0000000e+00 
9.7297162e-04 -8.1969277e-03 0.0000000e+00 
-1.2416500e-03 -9.1345494e-03 0.0000000e+00 
-4.9131122e-04 -9.1396334e-03 0.0000000e+00 
2.5795273e-04 -9.1537301e-03 0.0000000e+00 
1.0076108e-03 -9.1768772e-03 0.0000000e+00 
-1.3119198e-03 -1.0156485e-02 0.0000000e+00 
-5.2773882e-04 -1.0163157e-02 0.0000000e+00 
2.5536907e-04 -1.0178550e-02 0.0000000e+00 
1.0388618e-03 -1.0202704e-02 0.0000000e+00 
-1.3822715e-03 -1.1222773e-02 0.0000000e+00 
-5.6535421e-04 -1.1231045e-02 0.0000000e+00 
2.5049311e-04 -1.1247746e-02 0.0000000e+00 
1.0667173e-03 -1.1272921e-02 0.0000000e+00 
-1.4527308e-03 -1.2331957e-02 0.0000000e+00 
-6.0417455e-04 -1.2341831e-02 0.0000000e+00 
2.4331620e-04 -1.2359848e-02 0.0000000e+00 
1.0911769e-03 -1.2386054e-02 0.0000000e+00 
-1.5233168e-03 -1.3482585e-02 0.0000000e+00 
-6.4421044e-04 -1.3494063e-02 0.0000000e+00 
2.3383634e-04 -1.3513398e-02 0.0000000e+00 
1.1122474e-03 -1.3540639e-02 0.0000000e+00 
-1.5940430e-03 -1.4673221e-02 0.0000000e+00 
-6.8546628e-04 -1.4686299e-02 0.0000000e+00 
2.2205791e-04 -1.4706950e-02 0.0000000e+00 
1.1299418e-03 -1.4735226e-02 0.0000000e+00 
-1.6649166e-03 -1.5902439e-02 0.0000000e+00 
-7.2794058e-04 -1.5917107e-02 0.0000000e+00 
2.0799132e-04 -1.5939068e-02 0.0000000e+00 
1.1442794e-03 -1.5968375e-02 0.0000000e+00 
-1.7359398e-03 -1.7168826e-02 0.0000000e+00 
-7.7162630e-04 -1.7185071e-02 0.0000000e+00 
1.9165267e-04 -1.7208330e-02 0.0000000e+00 
1.1552853e-03 -1.7238659e-02 0.0000000e+00 
-1.8071097e-03 -1.8470977e-02 0.0000000e+00 
-8.1651108e-04 -1.8488782e-02 0.0000000e+00 
1.7306348e-04 -1.8513326e-02 0.0000000e+00 
1.1629901e-03 -1.8544666e-02 0.0000000e+00 
-1.8784181e-03 -1.9807504e-02 0.0000000e+00 
-8.6257758e-04 -1.9826848e-02 0.0000000e+00 
1.5225034e-04 -1.9852657e-02 0.0000000e+00 
1.1674296e-03 -1.9884992e-02 0.0000000e+00 
-1.9498522e-03 -2.1177026e-02 0.0000000e+00 
-9.0980368e-04 -2.1197886e-02 0.0000000e+00 
1.2924466e-04 -2.1224939e-02 0.0000000e+00 
1.1686444e-03 -2.1258249e-02 0.0000000e+00 
-2.0213949e-03 -2.2578180e-02 0.0000000e+00 
-9.5816280e-04 -2.2600527e-02 0.0000000e+00 
1.0408241e-04 -2.2628799e-02 0.0000000e+00 
1.1666799e-03 -2.2663062e-02 0.0000000e+00 
-2.0930249e-03 -2.4009609e-02 0.0000000e+00 
-1.0076241e-03 -2.4033413e-02 0.0000000e+00 
7.6803739e-05 -2.4062877e-02 0.0000000e+00 
1.1615856e-03 -2.4098067e-02 0.0000000e+00 
-2.1647169e-03 -2.5469974e-02 0.0000000e+00 
-1.0581530e-03 -2.5495201e-02 0.0000000e+00 
4.7452817e-05 -2.5525825e-02 0.0000000e+00 
1.1534149e-03 -2.5561913e-02 0.0000000e+00 
-2.2364422e-03 -2.6957943e-02 0.0000000e+00 
-1.1097111e-03 -2.6984557e-02 0.0000000e+00 
1.6077378e-05 -2.7016308e-02 0.0000000e+00 
1.1422251e-03 -2.7053263e-02 0.0000000e+00 
-2.3081685e-03 -2.8472200e-02 0.0000000e+00 
-1.1622566e-03 -2.8500163e-02 0.0000000e+00 
-1.7271198e-05 -2.8533005e-02 0.0000000e+00 
1.1280772e-03 -2.8570794e-02 0.0000000e+00 
-2.3798604e-03 -3.0011442e-02 0.0000000e+00 
-1.2157446e-03 -3.0040712e-02 0.0000000e+00 
-5.2538426e-05 -3.0074606e-02 0.0000000e+00 
1.1110348e-03 -3.0113193e-02 0.0000000e+00 
-2.4514798e-03 -3.1574374e-02 0.0000000e+00 
-1.2701271e-03 -3.1604910e-02 0.0000000e+00 
-8.9666935e-05 -3.1639815e-02 0.0000000e+00 
1.0911651e-03 -3.1679162e-02 0.0000000e+00 
-2.5229857e-03 -3.3159719e-02 0.0000000e+00 
-1.3253536e-03 -3.3191474e-02 0.0000000e+00 
-1.2859657e-04 -3.3227349e-02 0.0000000e+00 
1.0685374e-03 -3.3267415e-02 0.0000000e+00 
-2.5943340e-03 -3.4766207e-02 0.0000000e+00 
-1.3813709e-03 -3.4799136e-02 0.0000000e+00 
-1.6926477e-04 -3.4835936e-02 0.0000000e+00 
1.0432240e-03 -3.4876680e-02 0.0000000e+00 
-2.6654792e-03 -3.6392586e-02 0.0000000e+00 
-1.4381238e-03 -3.6426639e-02 0.0000000e+00 
-2.1160654e-04 -3.6464318e-02 0.0000000e+00 
1.0152991e-03 -3.6505697e-02 0.0000000e+00 
-2.7363739e-03 -3.8037611e-02 0.0000000e+00 
-1.4955549e-03 -3.8072739e-02 0.0000000e+00 
-2.5555494e-04 -3.8111251e-02 0.0000000e+00 
9.8483966e-04 -3.8153220e-02 0.0000000e+00 
-2.8069688e-03 -3.9700054e-02 0.0000000e+00 
-1.5536054e-03 -3.9736205e-02 0.0000000e+00 
-3.0104108e-04 -3.9775500e-02 0.0000000e+00 
9.5192417e-04 -3.9818014e-02 0.0000000e+00 
-2.8772144e-03 -4.1378697e-02 0.0000000e+00 
-1.6122148e-03 -4.1415820e-02 0.0000000e+00 
-3.4799454e-04 -4.1455850e-02 0.0000000e+00 
9.1663338e-04 -4.1498860e-02 0.0000000e+00 
-2.9470587e-03 -4.3072339e-02 0.0000000e+00 
-1.6713215e-03 -4.3110379e-02 0.0000000e+00 
-3.9634334e-04 -4.3151093e-02 0.0000000e+00 
8.7904903e-04 -4.3194552e-02 0.0000000e+00 
-3.0164494e-03 -4.4779788e-02 0.0000000e+00 
-1.7308625e-03 -4.4818693e-02 0.0000000e+00 
-4.4601442e-04 -4.4860038e-02 0.0000000e+00 
8.3925482e-04 -4.4903898e-02 0.0000000e+00 
-3.0853330e-03 -4.6499870e-02 0.0000000e+00 
-1.7907743e-03 -4.6539583e-02 0.0000000e+00 
-4.9693350e-04 -4.6581509e-02 0.0000000e+00 
7.9733506e-04 -4.6625720e-02 0.0000000e+00 
-3.1536559e-03 -4.8231420e-02 0.0000000e+00 
-1.8509923e-03 -4.8271887e-02 0.0000000e+00 
-5.4902554e-04 -4.8314341e-02 0.0000000e+00 
7.5337576e-04 -4.8358854e-02 0.0000000e+00 
-3.2213645e-03 -4.9973292e-02 0.0000000e+00 
-1.9114518e-03 -5.0014457e-02 0.0000000e+00 
-6.0221470e-04 -5.0057385e-02 0.0000000e+00 
7.0746327e-04 -5.0102150e-02 0.0000000e+00 
-3.2884048e-03 -5.1724351e-02 0.0000000e+00 
-1.9720880e-03 -5.1766157e-02 0.0000000e+00 
-6.5642462e-04 -5.1809507e-02 0.0000000e+00 
6.5968556e-04 -5.1854474e-02 0.0000000e+00 
-3.3547244e-03 -5.3483477e-02 0.0000000e+00 
-2.0328358e-03 -5.3525869e-02 0.0000000e+00 
-7.1157846e-04 -5.3569588e-02 0.0000000e+00 
6.1013160e-04 -5.3614707e-02 0.0000000e+00 
-3.4202712e-03 -5.5249570e-02 0.0000000e+00 
-2.0936307e-03 -5.5292490e-02 0.0000000e+00 
-7.6759917e-04 -5.5336525e-02 0.0000000e+00 
5.5889044e-04 -5.5381746e-02 0.0000000e+00 
-3.4849940e-03 -5.7021541e-02 0.0000000e+00 
-2.1544088e-03 -5.7064935e-02 0.0000000e+00 
-8.2440993e-04 -5.7109234e-02 0.0000000e+00 
5.0605214e-04 -5.7154508e-02 0.0000000e+00 
-3.5488426e-03 -5.8798325e-02 0.0000000e+00 
-2.2151065e-03 -5.8842135e-02 0.0000000e+00 
-8.8193390e-04 -5.8886646e-02 0.0000000e+00 
4.5170628e-04 -5.8931924e-02 0.0000000e+00 
-3.6117684e-03 -6.0578868e-02 0.0000000e+00 
-2.2756612e-03 -6.0623041e-02 0.0000000e+00 
-9.4009482e-04 -6.0667710e-02 0.0000000e+00 
3.9594340e-04 -6.0712945e-02 0.0000000e+00 
-3.6737244e-03 -6.2362140e-02 0.0000000e+00 
-2.3360116e-03 -6.2406619e-02 0.0000000e+00 
-9.9881690e-04 -6.2451398e-02 0.0000000e+00 
3.3885308e-04 -6.2496542e-02 0.0000000e+00 
-3.7346639e-03 -6.4147126e-02 0.0000000e+00 
-2.3960970e-03 -6.4191858e-02 0.0000000e+00 
-1.0580251e-03 -6.4236695e-02 0.0000000e+00 
2.8052508e-04 -6.4281701e-02 0.0000000e+00 
-3.7945440e-03 -6.5932833e-02 0.0000000e+00 
-2.4558588e-03 -6.5977764e-02 0.0000000e+00 
-1.1176452e-03 -6.6022610e-02 0.0000000e+00 
2.2104880e-04 -6.6067435e-02 0.0000000e+00 
-3.8533231e-03 -6.7718287e-02 0.0000000e+00 
-2.5152396e-03 -6.7763365e-02 0.0000000e+00 
-1.1776039e-03 -6.7808172e-02 0.0000000e+00 
1.6051359e-04 -6.7852770e-02 0.0000000e+00 
-3.9109627e-03 -6.9502537e-02 0.0000000e+00 
-2.5741843e-03 -6.9547710e-02 0.0000000e+00 
-1.2378292e-03 -6.9592431e-02 0.0000000e+00 
9.9008207e-05 -6.9636760e-02 0.0000000e+00 
-3.9674287e-03 -7.1284654e-02 0.0000000e+00 
-2.6326397e-03 -7.1329872e-02 0.0000000e+00 
-1.2982503e-03 -7.1374461e-02 0.0000000e+00 
3.6621476e-05 -7.1418480e-02 0.0000000e+00 
-4.0226877e-03 -7.3063735e-02 0.0000000e+00 
-2.6905549e-03 -7.3108948e-02 0.0000000e+00 
-1.3587980e-03 -7.3153362e-02 0.0000000e+00 
-2.6559543e-05 -7.3197031e-02 0.0000000e+00 
-4.0767096e-03 -7.4838898e-02 0.0000000e+00 
-2.7478813e-03 -7.4884059e-02 0.0000000e+00 
-1.4194048e-03 -7.4928254e-02 0.0000000e+00 
-9.0448578e-05 -7.4971536e-02 0.0000000e+00 
-4.1294674e-03 -7.6609289e-02 0.0000000e+00 
-2.8045721e-03 -7.6654352e-02 0.0000000e+00 
-1.4800052e-03 -7.6698286e-02 0.0000000e+00 
-1.5496071e-04 -7.6741145e-02 0.0000000e+00 
-4.1809366e-03 -7.8374079e-02 0.0000000e+00 
-2.8605835e-03 -7.8418998e-02 0.0000000e+00 
-1.5405346e-03 -7.8462633e-02 0.0000000e+00 
-2.2001223e-04 -7.8505035e-02 0.0000000e+00 
-4.2310972e-03 -8.0132465e-02 0.0000000e+00 
-2.9158743e-03 -8.0177197e-02 0.0000000e+00 
-1.6009315e-03 -8.0220494e-02 0.0000000e+00 
-2.8551987e-04 -8.0262406e-02 0.0000000e+00 
-4.2799329e-03 -8.1883673e-02 0.0000000e+00 
-2.9704062e-03 -8.1928176e-02 0.0000000e+00 
-1.6611358e-03 -8.1971101e-02 0.0000000e+00 
-3.5140202e-04 -8.2012493e-02 0.0000000e+00 
-4.3274302e-03 -8.3626958e-02 0.0000000e+00 
-3.0241437e-03 -8.3671194e-02 0.0000000e+00 
-1.7210897e-03 -8.3713711e-02 0.0000000e+00 
-4.1757882e-04 -8.3754556e-02 0.0000000e+00 
-4.3735801e-03 -8.5361608e-02 0.0000000e+00 
-3.0770541e-03 -8.5405537e-02 0.0000000e+00 
-1.7807380e-03 -8.5447616e-02 0.0000000e+00 
-4.8397219e-04 -8.5487887e-02 0.0000000e+00 
-4.4183742e-03 -8.7086937e-02 0.0000000e+00 
-3.1291077e-03 -8.7130524e-02 0.0000000e+00 
-1.8400275e-03 -8.7172134e-02 0.0000000e+00 
-5.5050615e-04 -8.7211807e-02 0.0000000e+00 
-4.4618107e-03 -8.8802293e-02 0.0000000e+00 
-3.1802775e-03 -8.8845503e-02 0.0000000e+00 
-1.8989080e-03 -8.8886617e-02 0.0000000e+00 
-6.1710629e-04 -8.8925672e-02 0.0000000e+00 
-4.5038893e-03 -9.0507055e-02 0.0000000e+00 
-3.2305402e-03 -9.0549857e-02 0.0000000e+00 
-1.9573312e-03 -9.0590448e-02 0.0000000e+00 
-6.8370029e-04 -9.0628864e-02 0.0000000e+00 
-4.5446150e-03 -9.2200635e-02 0.0000000e+00 
-3.2798751e-03 -9.2242998e-02 0.0000000e+00 
-2.0152517e-03 -9.2283044e-02 0.0000000e+00 
-7.5021735e-04 -9.2320806e-02 0.0000000e+00 
-4.5839978e-03 -9.3882480e-02 0.0000000e+00 
-3.3282652e-03 -9.3924376e-02 0.0000000e+00 
-2.0726267e-03 -9.3963854e-02 0.0000000e+00 
-8.1658896e-04 -9.4000946e-02 0.0000000e+00 
-4.6220491e-03 -9.5552071e-02 0.0000000e+00 
-3.3756965e-03 -9.5593474e-02 0.0000000e+00 
-2.1294163e-03 -9.5632366e-02 0.0000000e+00 
-8.8274918e-04 -9.5668776e-02 0.0000000e+00 
-4.6587832e-03 -9.7208924e-02 0.0000000e+00 
-3.4221580e-03 -9.7249810e-02 0.0000000e+00 
-2.1855833e-03 -9.7288099e-02 0.0000000e+00 
-9.4863501e-04 -9.7323816e-02 0.0000000e+00 
-4.6942184e-03 -9.8852589e-02 0.0000000e+00 
-3.4676409e-03 -9.8892937e-02 0.0000000e+00 
-2.2410934e-03 -9.8930607e-02 0.0000000e+00 
-1.0141857e-03 -9.8965624e-02 0.0000000e+00 
-4.7283746e-03 -1.0048265e-01 0.0000000e+00 
-3.5121400e-03 -1.0052244e-01 0.0000000e+00 
-2.2959146e-03 -1.0055948e-01 0.0000000e+00 
-1.0793434e-03 -1.0059379e-01 0.0000000e+00 
-4.7612757e-03 -1.0209874e-01 0.0000000e+00 
-3.5556525e-03 -1.0213795e-01 0.0000000e+00 
-2.3500183e-03 -1.0217435e-01 0.0000000e+00 
-1.1440528e-03 -1.0220795e-01 0.0000000e+00 
-4.7929480e-03 -1.0370049e-01 0.0000000e+00 
-3.5981777e-03 -1.0373912e-01 0.0000000e+00 
-2.4033777e-03 -1.0377486e-01 0.0000000e+00 
-1.2082617e-03 -1.0380775e-01 0.0000000e+00 
-4.8234193e-03 -1.0528762e-01 0.0000000e+00 
-3.6397187e-03 -1.0532563e-01 0.0000000e+00 
-2.4559698e-03 -1.0536072e-01 0.0000000e+00 
-1.2719205e-03 -1.0539290e-01 0.0000000e+00 
-4.8527207e-03 -1.0685983e-01 0.0000000e+00 
-3.6802804e-03 -1.0689723e-01 0.0000000e+00 
-2.5077736e-03 -1.0693166e-01 0.0000000e+00 
-1.3349823e-03 -1.0696312e-01 0.0000000e+00 
-4.8808852e-03 -1.0841690e-01 0.0000000e+00 
-3.7198701e-03 -1.0845367e-01 0.0000000e+00 
-2.5587709e-03 -1.0848743e-01 0.0000000e+00 
-1.3974036e-03 -1.0851819e-01 0.0000000e+00 
-4.9079481e-03 -1.0995862e-01 0.0000000e+00 
-3.7584973e-03 -1.0999475e-01 0.0000000e+00 
-2.6089459e-03 -1.1002784e-01 0.0000000e+00 
-1.4591426e-03 -1.1005790e-01 0.0000000e+00 
-4.9339457e-03 -1.1148480e-01 0.0000000e+00 
-3.7961738e-03 -1.1152030e-01 0.0000000e+00 
-2.6582852e-03 -1.1155272e-01 0.0000000e+00 
-1.5201614e-03 -1.1158208e-01 0.0000000e+00 
-4.9589170e-03 -1.1299533e-01 0.0000000e+00 
-3.8329131e-03 -1.1303017e-01 0.0000000e+00 
-2.7067779e-03 -1.1306193e-01 0.0000000e+00 
-1.5804242e-03 -1.1309060e-01 0.0000000e+00 
-4.9829000e-03 -1.1449008e-01 0.0000000e+00 
-3.8687307e-03 -1.1452428e-01 0.0000000e+00 
-2.7544153e-03 -1.1455537e-01 0.0000000e+00 
-1.6398983e-03 -1.1458336e-01 0.0000000e+00 
-5.0059365e-03 -1.1596899e-01 0.0000000e+00 
-3.9036433e-03 -1.1600254e-01 0.0000000e+00 
-2.8011907e-03 -1.1603297e-01 0.0000000e+00 
-1.6985534e-03 -1.1606030e-01 0.0000000e+00 
-5.0280673e-03 -1.1743201e-01 0.0000000e+00 
-3.9376700e-03 -1.1746491e-01 0.0000000e+00 
-2.8470997e-03 -1.1749469e-01 0.0000000e+00 
-1.7563618e-03 -1.1752136e-01 0.0000000e+00 
-5.0493357e-03 -1.1887913e-01 0.0000000e+00 
-3.9708310e-03 -1.1891138e-01 0.0000000e+00 
-2.8921398e-03 -1.1894052e-01 0.0000000e+00 
-1.8132976e-03 -1.1896654e-01 0.0000000e+00 
-5.0697877e-03 -1.2031037e-01 0.0000000e+00 
-4.0031482e-03 -1.2034197e-01 0.0000000e+00 
-2.9363105e-03 -1.2037047e-01 0.0000000e+00 
-1.8693384e-03 -1.2039587e-01 0.0000000e+00 
-5.0894673e-03 -1.2172578e-01 0.0000000e+00 
-4.0346449e-03 -1.2175674e-01 0.0000000e+00 
-2.9796132e-03 -1.2178461e-01 0.0000000e+00 
-1.9244635e-03 -1.2180940e-01 0.0000000e+00 
-5.1084191e-03 -1.2312544e-01 0.0000000e+00 
-4.0653450e-03 -1.2315576e-01 0.0000000e+00 
-3.0220513e-03 -1.2318302e-01 0.0000000e+00 
-1.9786557e-03 -1.2320721e-01 0.0000000e+00 
-5.1266879e-03 -1.2450944e-01 0.0000000e+00 
-4.0952734e-03 -1.2453913e-01 0.0000000e+00 
-3.0636296e-03 -1.2456579e-01 0.0000000e+00 
-2.0318995e-03 -1.2458940e-01 0.0000000e+00 
-5.1443181e-03 -1.2587793e-01 0.0000000e+00 
-4.1244547e-03 -1.2590699e-01 0.0000000e+00 
-3.1043543e-03 -1.2593306e-01 0.0000000e+00 
-2.0841825e-03 -1.2595610e-01 0.0000000e+00 
-5.1613527e-03 -1.2723105e-01 0.0000000e+00 
-4.1529155e-03 -1.2725950e-01 0.0000000e+00 
-3.1442339e-03 -1.2728498e-01 0.0000000e+00 
-2.1354956e-03 -1.2730749e-01 0.0000000e+00 
-5.1778345e-03 -1.2856899e-01 0.0000000e+00 
-4.1806818e-03 -1.2859683e-01 0.0000000e+00 
-3.1832780e-03 -1.2862175e-01 0.0000000e+00 
-2.1858316e-03 -1.2864373e-01 0.0000000e+00 
-5.1938057e-03 -1.2989194e-01 0.0000000e+00 
-4.2077801e-03 -1.2991919e-01 0.0000000e+00 
-3.2214974e-03 -1.2994356e-01 0.0000000e+00 
-2.2351858e-03 -1.2996502e-01 0.0000000e+00 
-5.2093080e-03 -1.3120013e-01 0.0000000e+00 
-4.2342371e-03 -1.3122679e-01 0.0000000e+00 
-3.2589040e-03 -1.3125062e-01 0.0000000e+00 
-2.2835550e-03 -1.3127159e-01 0.0000000e+00 
-5.2243818e-03 -1.3249379e-01 0.0000000e+00 
-4.2600797e-03 -1.3251988e-01 0.0000000e+00 
-3.2955105e-03 -1.3254319e-01 0.0000000e+00 
-2.3309384e-03 -1.3256369e-01 0.0000000e+00 
-5.2390677e-03 -1.3377318e-01 0.0000000e+00 
-4.2853344e-03 -1.3379871e-01 0.0000000e+00 
-3.3313306e-03 -1.3382151e-01 0.0000000e+00 
-2.3773362e-03 -1.3384155e-01 0.0000000e+00 
-5.2534040e-03 -1.3503857e-01 0.0000000e+00 
-4.3100285e-03 -1.3506356e-01 0.0000000e+00 
-3.3663786e-03 -1.3508586e-01 0.0000000e+00 
-2.4227502e-03 -1.3510547e-01 0.0000000e+00 
-5.2674295e-03 -1.3629026e-01 0.0000000e+00 
-4.3341885e-03 -1.3631471e-01 0.0000000e+00 
-3.4006698e-03 -1.3633654e-01 0.0000000e+00 
-2.4671836e-03 -1.3635574e-01 0.0000000e+00 
-5.2811829e-03 -1.3752856e-01 0.0000000e+00 
-4.3578415e-03 -1.3755248e-01 0.0000000e+00 
-3.4342199e-03 -1.3757385e-01 0.0000000e+00 
-2.5106418e-03 -1.3759265e-01 0.0000000e+00 
-5.2947004e-03 -1.3875377e-01 0.0000000e+00 
-4.3810139e-03 -1.3877719e-01 0.0000000e+00 
-3.4670455e-03 -1.3879812e-01 0.0000000e+00 
-2.5531308e-03 -1.3881654e-01 0.0000000e+00 
-5.3080174e-03 -1.3996625e-01 0.0000000e+00 
-4.4037321e-03 -1.3998917e-01 0.0000000e+00 
-3.4991637e-03 -1.4000967e-01 0.0000000e+00 
-2.5946589e-03 -1.4002772e-01 0.0000000e+00 
-5.3211678e-03 -1.4116632e-01 0.0000000e+00 
-4.4260217e-03 -1.4118876e-01 0.0000000e+00 
-3.5305921e-03 -1.4120884e-01 0.0000000e+00 
-2.6352351e-03 -1.4122656e-01 0.0000000e+00 
-5.3341840e-03 -1.4235435e-01 0.0000000e+00 
-4.4479081e-03 -1.4237632e-01 0.0000000e+00 
-3.5613485e-03 -1.4239601e-01 0.0000000e+00 
-2.6748700e-03 -1.4241340e-01 0.0000000e+00 
-5.3470975e-03 -1.4353069e-01 0.0000000e+00 
-4.4694161e-03 -1.4355221e-01 0.0000000e+00 
-3.5914511e-03 -1.4357152e-01 0.0000000e+00 
-2.7135754e-03 -1.4358861e-01 0.0000000e+00 
-5.3599380e-03 -1.4469573e-01 0.0000000e+00 
-4.4905691e-03 -1.4471682e-01 0.0000000e+00 
-3.6209188e-03 -1.4473576e-01 0.0000000e+00 
-2.7513644e-03 -1.4475256e-01 0.0000000e+00 
-5.3727327e-03 -1.4584985e-01 0.0000000e+00 
-4.5113914e-03 -1.4587051e-01 0.0000000e+00 
-3.6497707e-03 -1.4588911e-01 0.0000000e+00 
-2.7882522e-03 -1.4590563e-01 0.0000000e+00 
-5.3855072e-03 -1.4699341e-01 0.0000000e+00 
-4.5319051e-03 -1.4701367e-01 0.0000000e+00 
-3.6780261e-03 -1.4703194e-01 0.0000000e+00 
-2.8242550e-03 -1.4704820e-01 0.0000000e+00 
-5.3982860e-03 -1.4812683e-01 0.0000000e+00 
-4.5521322e-03 -1.4814669e-01 0.0000000e+00 
-3.7057046e-03 -1.4816464e-01 0.0000000e+00 
-2.8593899e-03 -1.4818066e-01 0.0000000e+00 
-5.4110915e-03 -1.4925048e-01 0.0000000e+00 
-4.5720939e-03 -1.4926996e-01 0.0000000e+00 
-3.7328257e-03 -1.4928761e-01 0.0000000e+00 
-2.8936748e-03 -1.4930341e-01 0.0000000e+00 
-5.4239454e-03 -1.5036475e-01 0.0000000e+00 