# vtk DataFile Version 4.0
vtk output
ASCII
DATASET UNSTRUCTURED_GRID
POINTS 604 float
5.5000000e+00 5.9700000e+00 0.0000000e+00 
5.5000000e+00 5.9900000e+00 0.0000000e+00 
5.5266667e+00 5.9700000e+00 0.0000000e+00 
5.5266667e+00 5.9900000e+00 0.0000000e+00 
5.5000000e+00 6.0100000e+00 0.0000000e+00 
5.5266667e+00 6.0100000e+00 0.0000000e+00 
5.5533333e+00 5.9700000e+00 0.0000000e+00 
5.5533333e+00 5.9900000e+00 0.0000000e+00 
5.5000000e+00 6.0300000e+00 0.0000000e+00 
5.5266667e+00 6.0300000e+00 0.0000000e+00 
5.5533333e+00 6.0100000e+00 0.0000000e+00 
5.5800000e+00 5.9700000e+00 0.0000000e+00 
5.5533333e+00 6.0300000e+00 0.0000000e+00 
5.5800000e+00 5.9900000e+00 0.0000000e+00 
5.5800000e+00 6.0100000e+00 0.0000000e+00 
5.5800000e+00 6.0300000e+00 0.0000000e+00 
5.6066667e+00 5.9700000e+00 0.0000000e+00 
5.6066667e+00 5.9900000e+00 0.0000000e+00 
5.6066667e+00 6.0100000e+00 0.0000000e+00 
5.6066667e+00 6.0300000e+00 0.0000000e+00 
5.6333333e+00 5.9700000e+00 0.0000000e+00 
5.6333333e+00 5.9900000e+00 0.0000000e+00 
5.6333333e+00 6.0100000e+00 0.0000000e+00 
5.6333333e+00 6.0300000e+00 0.0000000e+00 
5.6600000e+00 5.9700000e+00 0.0000000e+00 
5.6600000e+00 5.9900000e+00 0.0000000e+00 
5.6600000e+00 6.0100000e+00 0.0000000e+00 
5.6600000e+00 6.0300000e+00 0.0000000e+00 
5.6866667e+00 5.9700000e+00 0.0000000e+00 
5.6866667e+00 5.9900000e+00 0.0000000e+00 
5.6866667e+00 6.0100000e+00 0.0000000e+00 
5.6866667e+00 6.0300000e+00 0.0000000e+00 
5.7133333e+00 5.9700000e+00 0.0000000e+00 
5.7133333e+00 5.9900000e+00 0.0000000e+00 
5.7133333e+00 6.0100000e+00 0.0000000e+00 
5.7133333e+00 6.0300000e+00 0.0000000e+00 
5.7400000e+00 5.9700000e+00 0.0000000e+00 
5.7400000e+00 5.9900000e+00 0.0000000e+00 
5.7400000e+00 6.0100000e+00 0.0000000e+00 
5.7400000e+00 6.0300000e+00 0.0000000e+00 
5.7666667e+00 5.9700000e+00 0.0000000e+00 
5.7666667e+00 5.9900000e+00 0.0000000e+00 
5.7666667e+00 6.0100000e+00 0.0000000e+00 
5.7666667e+00 6.0300000e+00 0.0000000e+00 
5.7933333e+00 5.9700000e+00 0.0000000e+00 
5.7933333e+00 5.9900000e+00 0.0000000e+00 
5.7933333e+00 6.0100000e+00 0.0000000e+00 
5.7933333e+00 6.0300000e+00 0.0000000e+00 
5.8200000e+00 5.9700000e+00 0.0000000e+00 
5.8200000e+00 5.9900000e+00 0.0000000e+00 
5.8200000e+00 6.0100000e+00 0.0000000e+00 
5.8200000e+00 6.0300000e+00 0.0000000e+00 
5.8466667e+00 5.9700000e+00 0.0000000e+00 
5.8466667e+00 5.9900000e+00 0.0000000e+00 
5.8466667e+00 6.0100000e+00 0.0000000e+00 
5.8466667e+00 6.0300000e+00 0.0000000e+00 
5.8733333e+00 5.9700000e+00 0.0000000e+00 
5.8733333e+00 5.9900000e+00 0.0000000e+00 
5.8733333e+00 6.0100000e+00 0.0000000e+00 
5.8733333e+00 6.0300000e+00 0.0000000e+00 
5.9000000e+00 5.9700000e+00 0.0000000e+00 
5.9000000e+00 5.9900000e+00 0.0000000e+00 
5.9000000e+00 6.0100000e+00 0.0000000e+00 
5.9000000e+00 6.0300000e+00 0.0000000e+00 
5.9266667e+00 5.9700000e+00 0.0000000e+00 
5.9266667e+00 5.9900000e+00 0.0000000e+00 
5.9266667e+00 6.0100000e+00 0.0000000e+00 
5.9266667e+00 6.0300000e+00 0.0000000e+00 
5.9533333e+00 5.9700000e+00 0.0000000e+00 
5.9533333e+00 5.9900000e+00 0.0000000e+00 
5.9533333e+00 6.0100000e+00 0.0000000e+00 
5.9533333e+00 6.0300000e+00 0.0000000e+00 
5.9800000e+00 5.9700000e+00 0.0000000e+00 
5.9800000e+00 5.9900000e+00 0.0000000e+00 
5.9800000e+00 6.0100000e+00 0.0000000e+00 
5.9800000e+00 6.0300000e+00 0.0000000e+00 
6.0066667e+00 5.9700000e+00 0.0000000e+00 
6.0066667e+00 5.9900000e+00 0.0000000e+00 
6.0066667e+00 6.0100000e+00 0.0000000e+00 
6.0066667e+00 6.0300000e+00 0.0000000e+00 
6.0333333e+00 5.9700000e+00 0.0000000e+00 
6.0333333e+00 5.9900000e+00 0.0000000e+00 
6.0333333e+00 6.0100000e+00 0.0000000e+00 
6.0333333e+00 6.0300000e+00 0.0000000e+00 
6.0600000e+00 5.9700000e+00 0.0000000e+00 
6.0600000e+00 5.9900000e+00 0.0000000e+00 
6.0600000e+00 6.0100000e+00 0.0000000e+00 
6.0600000e+00 6.0300000e+00 0.0000000e+00 
6.0866667e+00 5.9700000e+00 0.0000000e+00 
6.0866667e+00 5.9900000e+00 0.0000000e+00 
6.0866667e+00 6.0100000e+00 0.0000000e+00 
6.0866667e+00 6.0300000e+00 0.0000000e+00 
6.1133333e+00 5.9700000e+00 0.0000000e+00 
6.1133333e+00 5.9900000e+00 0.0000000e+00 
6.1133333e+00 6.0100000e+00 0.0000000e+00 
6.1133333e+00 6.0300000e+00 0.0000000e+00 
6.1400000e+00 5.9700000e+00 0.0000000e+00 
6.1400000e+00 5.9900000e+00 0.0000000e+00 
6.1400000e+00 6.0100000e+00 0.0000000e+00 
6.1400000e+00 6.0300000e+00 0.0000000e+00 
6.1666667e+00 5.9700000e+00 0.0000000e+00 
6.1666667e+00 5.9900000e+00 0.0000000e+00 
6.1666667e+00 6.0100000e+00 0.0000000e+00 
6.1666667e+00 6.0300000e+00 0.0000000e+00 
6.1933333e+00 5.9700000e+00 0.0000000e+00 
6.1933333e+00 5.9900000e+00 0.0000000e+00 
6.1933333e+00 6.0100000e+00 0.0000000e+00 
6.1933333e+00 6.0300000e+00 0.0000000e+00 
6.2200000e+00 5.9700000e+00 0.0000000e+00 
6.2200000e+00 5.9900000e+00 0.0000000e+00 
6.2200000e+00 6.0100000e+00 0.0000000e+00 
6.2200000e+00 6.0300000e+00 0.0000000e+00 
6.2466667e+00 5.9700000e+00 0.0000000e+00 
6.2466667e+00 5.9900000e+00 0.0000000e+00 
6.2466667e+00 6.0100000e+00 0.0000000e+00 
6.2466667e+00 6.0300000e+00 0.0000000e+00 
6.2733333e+00 5.9700000e+00 0.0000000e+00 
6.2733333e+00 5.9900000e+00 0.0000000e+00 
6.2733333e+00 6.0100000e+00 0.0000000e+00 
6.2733333e+00 6.0300000e+00 0.0000000e+00 
6.3000000e+00 5.9700000e+00 0.0000000e+00 
6.3000000e+00 5.9900000e+00 0.0000000e+00 
6.3000000e+00 6.0100000e+00 0.0000000e+00 
6.3000000e+00 6.0300000e+00 0.0000000e+00 
6.3266667e+00 5.9700000e+00 0.0000000e+00 
6.3266667e+00 5.9900000e+00 0.0000000e+00 
6.3266667e+00 6.0100000e+00 0.0000000e+00 
6.3266667e+00 6.0300000e+00 0.0000000e+00 
6.3533333e+00 5.9700000e+00 0.0000000e+00 
6.3533333e+00 5.9900000e+00 0.0000000e+00 
6.3533333e+00 6.0100000e+00 0.0000000e+00 
6.3533333e+00 6.0300000e+00 0.0000000e+00 
6.3800000e+00 5.9700000e+00 0.0000000e+00 
6.3800000e+00 5.9900000e+00 0.0000000e+00 
6.3800000e+00 6.0100000e+00 0.0000000e+00 
6.3800000e+00 6.0300000e+00 0.0000000e+00 
6.4066667e+00 5.9700000e+00 0.0000000e+00 
6.4066667e+00 5.9900000e+00 0.0000000e+00 
6.4066667e+00 6.0100000e+00 0.0000000e+00 
6.4066667e+00 6.0300000e+00 0.0000000e+00 
6.4333333e+00 5.9700000e+00 0.0000000e+00 
6.4333333e+00 5.9900000e+00 0.0000000e+00 
6.4333333e+00 6.0100000e+00 0.0000000e+00 
6.4333333e+00 6.0300000e+00 0.0000000e+00 
6.4600000e+00 5.9700000e+00 0.0000000e+00 
6.4600000e+00 5.9900000e+00 0.0000000e+00 
6.4600000e+00 6.0100000e+00 0.0000000e+00 
6.4600000e+00 6.0300000e+00 0.0000000e+00 
6.4866667e+00 5.9700000e+00 0.0000000e+00 
6.4866667e+00 5.9900000e+00 0.0000000e+00 
6.4866667e+00 6.0100000e+00 0.0000000e+00 
6.4866667e+00 6.0300000e+00 0.0000000e+00 
6.5133333e+00 5.9700000e+00 0.0000000e+00 
6.5133333e+00 5.9900000e+00 0.0000000e+00 
6.5133333e+00 6.0100000e+00 0.0000000e+00 
6.5133333e+00 6.0300000e+00 0.0000000e+00 
6.5400000e+00 5.9700000e+00 0.0000000e+00 
6.5400000e+00 5.9900000e+00 0.0000000e+00 
6.5400000e+00 6.0100000e+00 0.0000000e+00 
6.5400000e+00 6.0300000e+00 0.0000000e+00 
6.5666667e+00 5.9700000e+00 0.0000000e+00 
6.5666667e+00 5.9900000e+00 0.0000000e+00 
6.5666667e+00 6.0100000e+00 0.0000000e+00 
6.5666667e+00 6.0300000e+00 0.0000000e+00 
6.5933333e+00 5.9700000e+00 0.0000000e+00 
6.5933333e+00 5.9900000e+00 0.0000000e+00 
6.5933333e+00 6.0100000e+00 0.0000000e+00 
6.5933333e+00 6.0300000e+00 0.0000000e+00 
6.6200000e+00 5.9700000e+00 0.0000000e+00 
6.6200000e+00 5.9900000e+00 0.0000000e+00 
6.6200000e+00 6.0100000e+00 0.0000000e+00 
6.6200000e+00 6.0300000e+00 0.0000000e+00 
6.6466667e+00 5.9700000e+00 0.0000000e+00 
6.6466667e+00 5.9900000e+00 0.0000000e+00 
6.6466667e+00 6.0100000e+00 0.0000000e+00 
6.6466667e+00 6.0300000e+00 0.0000000e+00 
6.6733333e+00 5.9700000e+00 0.0000000e+00 
6.6733333e+00 5.9900000e+00 0.0000000e+00 
6.6733333e+00 6.0100000e+00 0.0000000e+00 
6.6733333e+00 6.0300000e+00 0.0000000e+00 
6.7000000e+00 5.9700000e+00 0.0000000e+00 
6.7000000e+00 5.9900000e+00 0.0000000e+00 
6.7000000e+00 6.0100000e+00 0.0000000e+00 
6.7000000e+00 6.0300000e+00 0.0000000e+00 
6.7266667e+00 5.9700000e+00 0.0000000e+00 
6.7266667e+00 5.9900000e+00 0.0000000e+00 
6.7266667e+00 6.0100000e+00 0.0000000e+00 
6.7266667e+00 6.0300000e+00 0.0000000e+00 
6.7533333e+00 5.9700000e+00 0.0000000e+00 
6.7533333e+00 5.9900000e+00 0.0000000e+00 
6.7533333e+00 6.0100000e+00 0.0000000e+00 
6.7533333e+00 6.0300000e+00 0.0000000e+00 
6.7800000e+00 5.9700000e+00 0.0000000e+00 
6.7800000e+00 5.9900000e+00 0.0000000e+00 
6.7800000e+00 6.0100000e+00 0.0000000e+00 
6.7800000e+00 6.0300000e+00 0.0000000e+00 
6.8066667e+00 5.9700000e+00 0.0000000e+00 
6.8066667e+00 5.9900000e+00 0.0000000e+00 
6.8066667e+00 6.0100000e+00 0.0000000e+00 
6.8066667e+00 6.0300000e+00 0.0000000e+00 
6.8333333e+00 5.9700000e+00 0.0000000e+00 
6.8333333e+00 5.9900000e+00 0.0000000e+00 
6.8333333e+00 6.0100000e+00 0.0000000e+00 
6.8333333e+00 6.0300000e+00 0.0000000e+00 
6.8600000e+00 5.9700000e+00 0.0000000e+00 
6.8600000e+00 5.9900000e+00 0.0000000e+00 
6.8600000e+00 6.0100000e+00 0.0000000e+00 
6.8600000e+00 6.0300000e+00 0.0000000e+00 
6.8866667e+00 5.9700000e+00 0.0000000e+00 
6.8866667e+00 5.9900000e+00 0.0000000e+00 
6.8866667e+00 6.0100000e+00 0.0000000e+00 
6.8866667e+00 6.0300000e+00 0.0000000e+00 
6.9133333e+00 5.9700000e+00 0.0000000e+00 
6.9133333e+00 5.9900000e+00 0.0000000e+00 
6.9133333e+00 6.0100000e+00 0.0000000e+00 
6.9133333e+00 6.0300000e+00 0.0000000e+00 
6.9400000e+00 5.9700000e+00 0.0000000e+00 
6.9400000e+00 5.9900000e+00 0.0000000e+00 
6.9400000e+00 6.0100000e+00 0.0000000e+00 
6.9400000e+00 6.0300000e+00 0.0000000e+00 
6.9666667e+00 5.9700000e+00 0.0000000e+00 
6.9666667e+00 5.9900000e+00 0.0000000e+00 
6.9666667e+00 6.0100000e+00 0.0000000e+00 
6.9666667e+00 6.0300000e+00 0.0000000e+00 
6.9933333e+00 5.9700000e+00 0.0000000e+00 
6.9933333e+00 5.9900000e+00 0.0000000e+00 
6.9933333e+00 6.0100000e+00 0.0000000e+00 
6.9933333e+00 6.0300000e+00 0.0000000e+00 
7.0200000e+00 5.9700000e+00 0.0000000e+00 
7.0200000e+00 5.9900000e+00 0.0000000e+00 
[...]
POINT_DATA 604
FIELD FieldData 2
DISPLACEMENT 3 604  float
0.0000000e+00 0.0000000e+00 0.0000000e+00 
0.0000000e+00 0.0000000e+00 0.0000000e+00 
-1.1187775e-04 -6.6981799e-05 0.0000000e+00 
-3.5726835e-05 -4.3702285e-05 0.0000000e+00 
0.0000000e+00 0.0000000e+00 0.0000000e+00 
3.5164513e-05 -4.3885615e-05 0.0000000e+00 
-2.2598736e-04 -2.1511121e-04 0.0000000e+00 
-7.5878075e-05 -1.9639780e-04 0.0000000e+00 
0.0000000e+00 0.0000000e+00 0.0000000e+00 
1.1119718e-04 -6.7474167e-05 0.0000000e+00 
7.4017367e-05 -1.9703470e-04 0.0000000e+00 
-3.3927353e-04 -4.6577826e-04 0.0000000e+00 
2.2383887e-04 -2.1694131e-04 0.0000000e+00 
-1.1426856e-04 -4.4762332e-04 0.0000000e+00 
1.0962767e-04 -4.4894578e-04 0.0000000e+00 
3.3418143e-04 -4.6967907e-04 0.0000000e+00 
-4.5177328e-04 -8.1425307e-04 0.0000000e+00 
-1.5344891e-04 -7.9741649e-04 0.0000000e+00 
1.4380675e-04 -7.9969007e-04 0.0000000e+00 
4.4154984e-04 -8.2102015e-04 0.0000000e+00 
-5.6393072e-04 -1.2593013e-03 0.0000000e+00 
-1.9344085e-04 -1.2439760e-03 0.0000000e+00 
1.7591527e-04 -1.2474496e-03 0.0000000e+00 
5.4569886e-04 -1.2696750e-03 0.0000000e+00 
-6.7607039e-04 -1.7993246e-03 0.0000000e+00 
-2.3460583e-04 -1.7857465e-03 0.0000000e+00 
2.0567384e-04 -1.7906538e-03 0.0000000e+00 
6.4631288e-04 -1.8140073e-03 0.0000000e+00 
-7.8851338e-04 -2.4327739e-03 0.0000000e+00 
-2.7724951e-04 -2.4211613e-03 0.0000000e+00 
2.3278060e-04 -2.4277241e-03 0.0000000e+00 
7.4310608e-04 -2.4524304e-03 0.0000000e+00 
-9.0156384e-04 -3.1581105e-03 0.0000000e+00 
-3.2166529e-04 -3.1486703e-03 0.0000000e+00 
2.5695377e-04 -3.1570985e-03 0.0000000e+00 
8.3580718e-04 -3.1833703e-03 0.0000000e+00 
-1.0155105e-03 -3.9738104e-03 0.0000000e+00 
-3.6813059e-04 -3.9667380e-03 0.0000000e+00 
2.7792693e-04 -3.9772299e-03 0.0000000e+00 
9.2416083e-04 -4.0052684e-03 0.0000000e+00 
-1.1306266e-03 -4.8783639e-03 0.0000000e+00 
-4.1690777e-04 -4.8738434e-03 0.0000000e+00 
2.9544885e-04 -4.8865863e-03 0.0000000e+00 
1.0079267e-03 -4.9165813e-03 0.0000000e+00 
-1.2471714e-03 -5.8702755e-03 0.0000000e+00 
-4.6824436e-04 -5.8684802e-03 0.0000000e+00 
3.0928298e-04 -5.8836503e-03 0.0000000e+00 
1.0868793e-03 -5.9157809e-03 0.0000000e+00 
-1.3653887e-03 -6.9480641e-03 0.0000000e+00 
-5.2237384e-04 -6.9491567e-03 0.0000000e+00 
3.1920707e-04 -6.9669198e-03 0.0000000e+00 
1.1608073e-03 -7.0013547e-03 0.0000000e+00 
-1.4855100e-03 -8.1102625e-03 0.0000000e+00 
-5.7951576e-04 -8.1143957e-03 0.0000000e+00 
3.2501260e-04 -8.1349075e-03 0.0000000e+00 
1.2295133e-03 -8.1718052e-03 0.0000000e+00 
-1.6077526e-03 -9.3554185e-03 0.0000000e+00 
-6.3987653e-04 -9.3627349e-03 0.0000000e+00 
3.2650454e-04 -9.3861411e-03 0.0000000e+00 
1.2928134e-03 -9.4256502e-03 0.0000000e+00 
-1.7323216e-03 -1.0682094e-02 0.0000000e+00 
-7.0364954e-04 -1.0692727e-02 0.0000000e+00 
3.2350070e-04 -1.0719164e-02 0.0000000e+00 
1.3505368e-03 -1.0761423e-02 0.0000000e+00 
-1.8594094e-03 -1.2088866e-02 0.0000000e+00 
-7.7101579e-04 -1.2102939e-02 0.0000000e+00 
3.1583143e-04 -1.2132534e-02 0.0000000e+00 
1.4025249e-03 -1.2177674e-02 0.0000000e+00 
-1.9891959e-03 -1.3574326e-02 0.0000000e+00 
-8.4214419e-04 -1.3591955e-02 0.0000000e+00 
3.0333919e-04 -1.3624825e-02 0.0000000e+00 
1.4486314e-03 -1.3672967e-02 0.0000000e+00 
-2.1218503e-03 -1.5137080e-02 0.0000000e+00 
-9.1719194e-04 -1.5158370e-02 0.0000000e+00 
2.8587809e-04 -1.5194626e-02 0.0000000e+00 
1.4887219e-03 -1.5245881e-02 0.0000000e+00 
-2.2575298e-03 -1.6775748e-02 0.0000000e+00 
-9.9630512e-04 -1.6800798e-02 0.0000000e+00 
2.6331356e-04 -1.6840541e-02 0.0000000e+00 
1.5226730e-03 -1.6895014e-02 0.0000000e+00 
-2.3963812e-03 -1.8488966e-02 0.0000000e+00 
-1.0796190e-03 -1.8517867e-02 0.0000000e+00 
2.3552195e-04 -1.8561189e-02 0.0000000e+00 
1.5503725e-03 -1.8618977e-02 0.0000000e+00 
-2.5385417e-03 -2.0275386e-02 0.0000000e+00 
-1.1672583e-03 -2.0308219e-02 0.0000000e+00 
2.0239012e-04 -2.0355207e-02 0.0000000e+00 
1.5717192e-03 -2.0416397e-02 0.0000000e+00 
-2.6841375e-03 -2.2133673e-02 0.0000000e+00 
-1.2593379e-03 -2.2170513e-02 0.0000000e+00 
1.6381502e-04 -2.2221244e-02 0.0000000e+00 
1.5866216e-03 -2.2285918e-02 0.0000000e+00 
-2.8332850e-03 -2.4062509e-02 0.0000000e+00 
-1.3559625e-03 -2.4103423e-02 0.0000000e+00 
1.1970329e-04 -2.4157969e-02 0.0000000e+00 
1.5949975e-03 -2.4226200e-02 0.0000000e+00 
-2.9860915e-03 -2.6060588e-02 0.0000000e+00 
-1.4572276e-03 -2.6105639e-02 0.0000000e+00 
6.9970888e-05 -2.6164063e-02 0.0000000e+00 
1.5967747e-03 -2.6235918e-02 0.0000000e+00 
-3.1426537e-03 -2.8126623e-02 0.0000000e+00 
-1.5632195e-03 -2.8175864e-02 0.0000000e+00 
1.4542890e-05 -2.8238223e-02 0.0000000e+00 
1.5918888e-03 -2.8313763e-02 0.0000000e+00 
-3.3030610e-03 -3.0259338e-02 0.0000000e+00 
-1.6740156e-03 -3.0312817e-02 0.0000000e+00 
-4.6646965e-05 -3.0379163e-02 0.0000000e+00 
1.5802853e-03 -3.0458441e-02 0.0000000e+00 
-3.4673943e-03 -3.2457474e-02 0.0000000e+00 
-1.7896854e-03 -3.2515232e-02 0.0000000e+00 
-1.1365645e-04 -3.2585609e-02 0.0000000e+00 
1.5619177e-03 -3.2668673e-02 0.0000000e+00 
-3.6357264e-03 -3.4719785e-02 0.0000000e+00 
-1.9102900e-03 -3.4781859e-02 0.0000000e+00 
-1.8653537e-04 -3.4856306e-02 0.0000000e+00 
1.5367476e-03 -3.4943198e-02 0.0000000e+00 
-3.8081224e-03 -3.7045042e-02 0.0000000e+00 
-2.0358830e-03 -3.7111462e-02 0.0000000e+00 
-2.6532576e-04 -3.7190012e-02 0.0000000e+00 
1.5047445e-03 -3.7280768e-02 0.0000000e+00 
-3.9846401e-03 -3.9432031e-02 0.0000000e+00 
-2.1665106e-03 -3.9502820e-02 0.0000000e+00 
-3.5006230e-04 -3.9585501e-02 0.0000000e+00 
1.4658850e-03 -3.9680151e-02 0.0000000e+00 
-4.1653299e-03 -4.1879550e-02 0.0000000e+00 
-2.3022118e-03 -4.1954729e-02 0.0000000e+00 
-4.4077256e-04 -4.2041563e-02 0.0000000e+00 
1.4201531e-03 -4.2140133e-02 0.0000000e+00 
-4.3502353e-03 -4.4386416e-02 0.0000000e+00 
-2.4430187e-03 -4.4465998e-02 0.0000000e+00 
-5.3747731e-04 -4.4557004e-02 0.0000000e+00 
1.3675391e-03 -4.4659514e-02 0.0000000e+00 
-4.5393937e-03 -4.6951457e-02 0.0000000e+00 
-2.5889571e-03 -4.7035453e-02 0.0000000e+00 
-6.4019084e-04 -4.7130642e-02 0.0000000e+00 
1.3080404e-03 -4.7237108e-02 0.0000000e+00 
-4.7328359e-03 -4.9573520e-02 0.0000000e+00 
-2.7400464e-03 -4.9661934e-02 0.0000000e+00 
-7.4892118e-04 -4.9761315e-02 0.0000000e+00 
1.2416601e-03 -4.9871747e-02 0.0000000e+00 
-4.9305867e-03 -5.2251462e-02 0.0000000e+00 
-2.8963003e-03 -5.2344296e-02 0.0000000e+00 
-8.6367033e-04 -5.2447872e-02 0.0000000e+00 
1.1684075e-03 -5.2562278e-02 0.0000000e+00 
-5.1326672e-03 -5.4984160e-02 0.0000000e+00 
-3.0577268e-03 -5.5081409e-02 0.0000000e+00 
-9.8443473e-04 -5.5189180e-02 0.0000000e+00 
1.0882985e-03 -5.5307563e-02 0.0000000e+00 
-5.3390912e-03 -5.7770504e-02 0.0000000e+00 
-3.2243286e-03 -5.7872161e-02 0.0000000e+00 
-1.1112054e-03 -5.7984123e-02 0.0000000e+00 
1.0013533e-03 -5.8106481e-02 0.0000000e+00 
-5.5498673e-03 -6.0609398e-02 0.0000000e+00 
-3.3961032e-03 -6.0715453e-02 0.0000000e+00 
-1.2439685e-03 -6.0831598e-02 0.0000000e+00 
9.0759712e-04 -6.0957926e-02 0.0000000e+00 
-5.7649996e-03 -6.3499764e-02 0.0000000e+00 
-3.5730427e-03 -6.3610202e-02 0.0000000e+00 
-1.3827050e-03 -6.3730518e-02 0.0000000e+00 
8.0706009e-04 -6.3860807e-02 0.0000000e+00 
-5.9844852e-03 -6.6440536e-02 0.0000000e+00 
-3.7551348e-03 -6.6555338e-02 0.0000000e+00 
-1.5273917e-03 -6.6679811e-02 0.0000000e+00 
6.9977593e-04 -6.6814048e-02 0.0000000e+00 
-6.2083189e-03 -6.9430662e-02 0.0000000e+00 
-3.9423623e-03 -6.9549808e-02 0.0000000e+00 
-1.6780005e-03 -6.9678418e-02 0.0000000e+00 
5.8578395e-04 -6.9816589e-02 0.0000000e+00 
-6.4364907e-03 -7.2469106e-02 0.0000000e+00 
-4.1347042e-03 -7.2592571e-02 0.0000000e+00 
-1.8344991e-03 -7.2725297e-02 0.0000000e+00 
4.6512739e-04 -7.2867383e-02 0.0000000e+00 
-6.6689870e-03 -7.5554846e-02 0.0000000e+00 
-4.3321355e-03 -7.5682602e-02 0.0000000e+00 
-1.9968514e-03 -7.5819421e-02 0.0000000e+00 
3.3785365e-04 -7.5965400e-02 0.0000000e+00 
-6.9057899e-03 -7.8686874e-02 0.0000000e+00 
-4.5346274e-03 -7.8818891e-02 0.0000000e+00 
-2.1650175e-03 -7.8959775e-02 0.0000000e+00 
2.0401365e-04 -7.9109623e-02 0.0000000e+00 
-7.1468785e-03 -8.1864196e-02 0.0000000e+00 
-4.7421476e-03 -8.2000443e-02 0.0000000e+00 
-2.3389539e-03 -8.2145363e-02 0.0000000e+00 
6.3661941e-05 -8.2299053e-02 0.0000000e+00 
-7.3922279e-03 -8.5085836e-02 0.0000000e+00 
-4.9546603e-03 -8.5226277e-02 0.0000000e+00 
-2.5186140e-03 -8.5375200e-02 0.0000000e+00 
-8.3143798e-05 -8.5532703e-02 0.0000000e+00 
-7.6418101e-03 -8.8350829e-02 0.0000000e+00 
-5.1721265e-03 -8.8495427e-02 0.0000000e+00 
-2.7039478e-03 -8.8648318e-02 0.0000000e+00 
-2.3634287e-04 -8.8809604e-02 0.0000000e+00 
-7.8955943e-03 -9.1658225e-02 0.0000000e+00 
-5.3945044e-03 -9.1806941e-02 0.0000000e+00 
-2.8949025e-03 -9.1963765e-02 0.0000000e+00 
-3.9587151e-04 -9.2128798e-02 0.0000000e+00 
-8.1535465e-03 -9.5007090e-02 0.0000000e+00 
-5.6217494e-03 -9.5159881e-02 0.0000000e+00 
-3.0914226e-03 -9.5320599e-02 0.0000000e+00 
-5.6166346e-04 -9.5489344e-02 0.0000000e+00 
-8.4156306e-03 -9.8396501e-02 0.0000000e+00 
-5.8538141e-03 -9.8553325e-02 0.0000000e+00 
-3.2934500e-03 -9.8717896e-02 0.0000000e+00 
-7.3364975e-04 -9.8890316e-02 0.0000000e+00 
-8.6818073e-03 -1.0182555e-01 0.0000000e+00 
-6.0906488e-03 -1.0198636e-01 0.0000000e+00 
-3.5009243e-03 -1.0215475e-01 0.0000000e+00 
-9.1175927e-04 -1.0233080e-01 0.0000000e+00 
-8.9520353e-03 -1.0529335e-01 0.0000000e+00 
-6.3322017e-03 -1.0545810e-01 0.0000000e+00 
-3.7137826e-03 -1.0563025e-01 0.0000000e+00 
-1.0959186e-03 -1.0580990e-01 0.0000000e+00 
-9.2262735e-03 -1.0879902e-01 0.0000000e+00 
-6.5784191e-03 -1.0896766e-01 0.0000000e+00 
-3.9319602e-03 -1.0914354e-01 0.0000000e+00 
-1.2860512e-03 -1.0932674e-01 0.0000000e+00 
-9.5044765e-03 -1.1234169e-01 0.0000000e+00 
-6.8292454e-03 -1.1251418e-01 0.0000000e+00 
-4.1553906e-03 -1.1269373e-01 0.0000000e+00 
-1.4820800e-03 -1.1288044e-01 0.0000000e+00 
-9.7865969e-03 -1.1592052e-01 0.0000000e+00 
-7.0846229e-03 -1.1609680e-01 0.0000000e+00 
-4.3840056e-03 -1.1627998e-01 0.0000000e+00 
-1.6839266e-03 -1.1647015e-01 0.0000000e+00 
-1.0072587e-02 -1.1953467e-01 0.0000000e+00 
-7.3444921e-03 -1.1971470e-01 0.0000000e+00 
-4.6177356e-03 -1.1990145e-01 0.0000000e+00 
-1.8915106e-03 -1.2009504e-01 0.0000000e+00 
-1.0362392e-02 -1.2318332e-01 0.0000000e+00 
-7.6087919e-03 -1.2336703e-01 0.0000000e+00 
-4.8565095e-03 -1.2355732e-01 0.0000000e+00 
-2.1047521e-03 -1.2375428e-01 0.0000000e+00 
-1.0655962e-02 -1.2686566e-01 0.0000000e+00 
-7.8774597e-03 -1.2705300e-01 0.0000000e+00 
-5.1002547e-03 -1.2724677e-01 0.0000000e+00 
-2.3235678e-03 -1.2744705e-01 0.0000000e+00 
-1.0953243e-02 -1.3058088e-01 0.0000000e+00 
-8.1504318e-03 -1.3077181e-01 0.0000000e+00 
-5.3488974e-03 -1.3096900e-01 0.0000000e+00 
-2.5478740e-03 -1.3117256e-01 0.0000000e+00 
-1.1254181e-02 -1.3432822e-01 0.0000000e+00 
-8.4276435e-03 -1.3452268e-01 0.0000000e+00 
-5.6023627e-03 -1.3472324e-01 0.0000000e+00 
-2.7775854e-03 -1.3493001e-01 0.0000000e+00 
-1.1558719e-02 -1.3810690e-01 0.0000000e+00 
-8.7090290e-03 -1.3830482e-01 0.0000000e+00 
-5.8605748e-03 -1.3850871e-01 0.0000000e+00 
-3.0126165e-03 -1.3871865e-01 0.0000000e+00 
-1.1866802e-02 -1.4191616e-01 0.0000000e+00 
-8.9945217e-03 -1.4211750e-01 0.0000000e+00 
-6.1234572e-03 -1.4232465e-01 0.0000000e+00 
-3.2528807e-03 -1.4253771e-01 0.0000000e+00 
-1.2178371e-02 -1.4575526e-01 0.0000000e+00 
-9.2840542e-03 -1.4595995e-01 0.0000000e+00 
-6.3909326e-03 -1.4617031e-01 0.0000000e+00 
-3.4982908e-03 -1.4638645e-01 0.0000000e+00 
-1.2493367e-02 -1.4962347e-01 0.0000000e+00 
-9.5775583e-03 -1.4983146e-01 0.0000000e+00 
-6.6629230e-03 -1.5004498e-01 0.0000000e+00 
-3.7487594e-03 -1.5026413e-01 0.0000000e+00 
-1.2811733e-02 -1.5352008e-01 0.0000000e+00 
-9.8749656e-03 -1.5373130e-01 0.0000000e+00 
-6.9393500e-03 -1.5394793e-01 0.0000000e+00 
-4.0041983e-03 -1.5417003e-01 0.0000000e+00 
-1.3133411e-02 -1.5744437e-01 0.0000000e+00 
-1.0176207e-02 -1.5765878e-01 0.0000000e+00 
-7.2201349e-03 -1.5787845e-01 0.0000000e+00 
-4.2645180e-03 -1.5810346e-01 0.0000000e+00 
-1.3458340e-02 -1.6139566e-01 0.0000000e+00 
-1.0481214e-02 -1.6161319e-01 0.0000000e+00 
-7.5051986e-03 -1.6183585e-01 0.0000000e+00 
-4.5296300e-03 -1.6206372e-01 0.0000000e+00 
-1.3786461e-02 -1.6537327e-01 0.0000000e+00 
-1.0789917e-02 -1.6559387e-01 0.0000000e+00 
-7.7944623e-03 -1.6581946e-01 0.0000000e+00 
-4.7994462e-03 -1.6605014e-01 0.0000000e+00 
-1.4117712e-02 -1.6937653e-01 0.0000000e+00 
-1.1102245e-02 -1.6960014e-01 0.0000000e+00 
-8.0878469e-03 -1.6982861e-01 0.0000000e+00 
-5.0738780e-03 -1.7006203e-01 0.0000000e+00 
-1.4452032e-02 -1.7340479e-01 0.0000000e+00 
-1.1418128e-02 -1.7363135e-01 0.0000000e+00 
-8.3852733e-03 -1.7386264e-01 0.0000000e+00 
-5.3528388e-03 -1.7409876e-01 0.0000000e+00 
-1.4789358e-02 -1.7745741e-01 0.0000000e+00 
-1.1737496e-02 -1.7768686e-01 0.0000000e+00 
-8.6866622e-03 -1.7792092e-01 0.0000000e+00 
-5.6362399e-03 -1.7815968e-01 0.0000000e+00 
-1.5129628e-02 -1.8153376e-01 0.0000000e+00 
-1.2060277e-02 -1.8176603e-01 0.0000000e+00 
-8.9919343e-03 -1.8200280e-01 0.0000000e+00 
-5.9239934e-03 -1.8224416e-01 0.0000000e+00 
-1.5472783e-02 -1.8563321e-01 0.0000000e+00 
-1.2386403e-02 -1.8586826e-01 0.0000000e+00 
-9.3010105e-03 -1.8610768e-01 0.0000000e+00 
-6.2160112e-03 -1.8635157e-01 0.0000000e+00 
-1.5818759e-02 -1.8975516e-01 0.0000000e+00 
-1.2715802e-02 -1.8999292e-01 0.0000000e+00 
-9.6138119e-03 -1.9023494e-01 0.0000000e+00 
-6.5122059e-03 -1.9048131e-01 0.0000000e+00 
-1.6167497e-02 -1.9389900e-01 0.0000000e+00 
-1.3048405e-02 -1.9413943e-01 0.0000000e+00 
-9.9302599e-03 -1.9438399e-01 0.0000000e+00 
-6.8124902e-03 -1.9463279e-01 0.0000000e+00 
-1.6518933e-02 -1.9806417e-01 0.0000000e+00 
-1.3384141e-02 -1.9830719e-01 0.0000000e+00 
-1.0250276e-02 -1.9855424e-01 0.0000000e+00 
-7.1167775e-03 -1.9880541e-01 0.0000000e+00 
-1.6873007e-02 -2.0225007e-01 0.0000000e+00 
-1.3722942e-02 -2.0249564e-01 0.0000000e+00 
-1.0573784e-02 -2.0274512e-01 0.0000000e+00 
-7.4249821e-03 -2.0299861e-01 0.0000000e+00 
-1.7229658e-02 -2.0645616e-01 0.0000000e+00 
-1.4064737e-02 -2.0670421e-01 0.0000000e+00 
-1.0900704e-02 -2.0695607e-01 0.0000000e+00 
-7.7370184e-03 -2.0721183e-01 0.0000000e+00 
-1.7588824e-02 -2.1068187e-01 0.0000000e+00 
-1.4409458e-02 -2.1093235e-01 0.0000000e+00 
-1.1230961e-02 -2.1118653e-01 0.0000000e+00 
-8.0528017e-03 -2.1144451e-01 0.0000000e+00 
-1.7950444e-02 -2.1492666e-01 0.0000000e+00 
-1.4757036e-02 -2.1517952e-01 0.0000000e+00 
-1.1564478e-02 -2.1543597e-01 0.0000000e+00 
-8.3722479e-03 -2.1569610e-01 0.0000000e+00 
-1.8314457e-02 -2.1919001e-01 0.0000000e+00 
-1.5107403e-02 -2.1944518e-01 0.0000000e+00 
-1.1901178e-02 -2.1970384e-01 0.0000000e+00 
-8.6952735e-03 -2.1996609e-01 0.0000000e+00 
-1.8680804e-02 -2.2347138e-01 0.0000000e+00 
-1.5460490e-02 -2.2372881e-01 0.0000000e+00 
-1.2240988e-02 -2.2398964e-01 0.0000000e+00 
-9.0217957e-03 -2.2425394e-01 0.0000000e+00 
-1.9049425e-02 -2.2777026e-01 0.0000000e+00 
-1.5816232e-02 -2.2802990e-01 0.0000000e+00 
-1.2583831e-02 -2.2829284e-01 0.0000000e+00 
-9.3517309e-03 -2.2855915e-01 0.0000000e+00 
-1.9420262e-02 -2.3208617e-01 0.0000000e+00 
-1.6174561e-02 -2.3234795e-01 0.0000000e+00 
-1.2929633e-02 -2.3261295e-01 0.0000000e+00 
-9.6849980e-03 -2.3288122e-01 0.0000000e+00 
-1.9793256e-02 -2.3641859e-01 0.0000000e+00 
-1.6535411e-02 -2.3668248e-01 0.0000000e+00 
-1.3278323e-02 -2.3694947e-01 0.0000000e+00 
-1.0021517e-02 -2.3721965e-01 0.0000000e+00 
-2.0168346e-02 -2.4076705e-01 0.0000000e+00 
-1.6898717e-02 -2.4103299e-01 0.0000000e+00 
-1.3629826e-02 -2.4130193e-01 0.0000000e+00 
-1.0361209e-02 -2.4157397e-01 0.0000000e+00 
-2.0545472e-02 -2.4513108e-01 0.0000000e+00 
-1.7264412e-02 -2.4539900e-01 0.0000000e+00 
-1.3984072e-02 -2.4566985e-01 0.0000000e+00 
-1.0703996e-02 -2.4594370e-01 0.0000000e+00 
-2.0924576e-02 -2.4951021e-01 0.0000000e+00 
-1.7632431e-02 -2.4978007e-01 0.0000000e+00 
-1.4340989e-02 -2.5005276e-01 0.0000000e+00 
-1.1049802e-02 -2.5032837e-01 0.0000000e+00 
-2.1305599e-02 -2.5390397e-01 0.0000000e+00 
-1.8002709e-02 -2.5417572e-01 0.0000000e+00 
-1.4700506e-02 -2.5445021e-01 0.0000000e+00 
-1.1398548e-02 -2.5472753e-01 0.0000000e+00 
-2.1688482e-02 -2.5831193e-01 0.0000000e+00 
-1.8375183e-02 -2.5858551e-01 0.0000000e+00 
-1.5062552e-02 -2.5886175e-01 0.0000000e+00 
-1.1750158e-02 -2.5914072e-01 0.0000000e+00 
-2.2073170e-02 -2.6273363e-01 0.0000000e+00 
-1.8749788e-02 -2.6300899e-01 0.0000000e+00 
-1.5427059e-02 -2.6328693e-01 0.0000000e+00 
-1.2104557e-02 -2.6356752e-01 0.0000000e+00 
-2.2459604e-02 -2.6716864e-01 0.0000000e+00 
-1.9126463e-02 -2.6744574e-01 0.0000000e+00 
-1.5793958e-02 -2.6772533e-01 0.0000000e+00 
-1.2461670e-02 -2.6800748e-01 0.0000000e+00 
-2.2847728e-02 -2.7161654e-01 0.0000000e+00 
-1.9505144e-02 -2.7189532e-01 0.0000000e+00 
-1.6163180e-02 -2.7217651e-01 0.0000000e+00 
-1.2821424e-02 -2.7246018e-01 0.0000000e+00 
-2.3237485e-02 -2.7607690e-01 0.0000000e+00 
-1.9885770e-02 -2.7635731e-01 0.0000000e+00 
-1.6534658e-02 -2.7664006e-01 0.0000000e+00 
-1.3183746e-02 -2.7692520e-01 0.0000000e+00 
-2.3628819e-02 -2.8054932e-01 0.0000000e+00 
-2.0268279e-02 -2.8083131e-01 0.0000000e+00 
-1.6908326e-02 -2.8111556e-01 0.0000000e+00 
-1.3548564e-02 -2.8140212e-01 0.0000000e+00 
-2.4021677e-02 -2.8503338e-01 0.0000000e+00 
-2.0652611e-02 -2.8531691e-01 0.0000000e+00 
-1.7284117e-02 -2.8560262e-01 0.0000000e+00 
-1.3915804e-02 -2.8589056e-01 0.0000000e+00 
-2.4416005e-02 -2.8952870e-01 0.0000000e+00 
-2.1038707e-02 -2.8981372e-01 0.0000000e+00 
-1.7661965e-02 -2.9010083e-01 0.0000000e+00 
-1.4285396e-02 -2.9039011e-01 0.0000000e+00 
-2.4811748e-02 -2.9403488e-01 0.0000000e+00 
-2.1426508e-02 -2.9432134e-01 0.0000000e+00 
-1.8041807e-02 -2.9460982e-01 0.0000000e+00 
-1.4657272e-02 -2.9490038e-01 0.0000000e+00 
-2.5208853e-02 -2.9855154e-01 0.0000000e+00 
-2.1815953e-02 -2.9883939e-01 0.0000000e+00 
-1.8423579e-02 -2.9912919e-01 0.0000000e+00 
-1.5031361e-02 -2.9942100e-01 0.0000000e+00 
-2.5607263e-02 -3.0307830e-01 0.0000000e+00 
-2.2206986e-02 -3.0336750e-01 0.0000000e+00 
-1.8807219e-02 -3.0365857e-01 0.0000000e+00 
-1.5407599e-02 -3.0395158e-01 0.0000000e+00 
-2.6006927e-02 -3.0761479e-01 0.0000000e+00 
-2.2599547e-02 -3.0790529e-01 0.0000000e+00 
-1.9192663e-02 -3.0819759e-01 0.0000000e+00 
-1.5785917e-02 -3.0849176e-01 0.0000000e+00 
-2.6407793e-02 -3.1216065e-01 0.0000000e+00 
-2.2993581e-02 -3.1245240e-01 0.0000000e+00 
-1.9579850e-02 -3.1274589e-01 0.0000000e+00 
-1.6166250e-02 -3.1304117e-01 0.0000000e+00 
-2.6809808e-02 -3.1671551e-01 0.0000000e+00 
-2.3389031e-02 -3.1700848e-01 0.0000000e+00 
-1.9968720e-02 -3.1730310e-01 0.0000000e+00 
-1.6548530e-02 -3.1759945e-01 0.0000000e+00 
-2.7212922e-02 -3.2127903e-01 0.0000000e+00 
-2.3785840e-02 -3.2157316e-01 0.0000000e+00 
-2.0359210e-02 -3.2186889e-01 0.0000000e+00 
-1.6932694e-02 -3.2216627e-01 0.0000000e+00 
-2.7617086e-02 -3.2585086e-01 0.0000000e+00 
-2.4183955e-02 -3.2614611e-01 0.0000000e+00 
-2.0751263e-02 -3.2644289e-01 0.0000000e+00 
-1.7318676e-02 -3.2674126e-01 0.0000000e+00 
-2.8022249e-02 -3.3043066e-01 0.0000000e+00 
-2.4583322e-02 -3.3072698e-01 0.0000000e+00 
-2.1144819e-02 -3.3102478e-01 0.0000000e+00 
-1.7706413e-02 -3.3132409e-01 0.0000000e+00 
-2.8428364e-02 -3.3501809e-01 0.0000000e+00 
-2.4983887e-02 -3.3531545e-01 0.0000000e+00 
-2.1539819e-02 -3.3561422e-01 0.0000000e+00 
-1.8095842e-02 -3.3591444e-01 0.0000000e+00 
-2.8835383e-02 -3.3961283e-01 0.0000000e+00 
-2.5385597e-02 -3.3991119e-01 0.0000000e+00 
-2.1936208e-02 -3.4021088e-01 0.0000000e+00 
-1.8486901e-02 -3.4051197e-01 0.0000000e+00 
-2.9243259e-02 -3.4421456e-01 0.0000000e+00 
-2.5788402e-02 -3.4451387e-01 0.0000000e+00 
-2.2333928e-02 -3.4481445e-01 0.0000000e+00 
-1.8879529e-02 -3.4511637e-01 0.0000000e+00 
-2.9651947e-02 -3.4882296e-01 0.0000000e+00 
-2.6192251e-02 -3.4912318e-01 0.0000000e+00 
-2.2732924e-02 -3.4942462e-01 0.0000000e+00 
-1.9273665e-02 -3.4972733e-01 0.0000000e+00 