# vtk DataFile Version 4.0
vtk output
ASCII
DATASET UNSTRUCTURED_GRID
POINTS 604 float
5.5000000e+00 5.9700000e+00 0.0000000e+00 
5.5000000e+00 5.9900000e+00 0.0000000e+00 
5.5266667e+00 5.9700000e+00 0.0000000e+00 
5.5266667e+00 5.9900000e+00 0.0000000e+00 
5.5000000e+00 6.0100000e+00 0.0000000e+00 
5.5266667e+00 6.0100000e+00 0.0000000e+00 
5.5533333e+00 5.9700000e+00 0.0000000e+00 
5.5533333e+00 5.9900000e+00 0.0000000e+00 
5.5000000e+00 6.0300000e+00 0.0000000e+00 
5.5266667e+00 6.0300000e+00 0.0000000e+00 
5.5533333e+00 6.0100000e+00 0.0000000e+00 
5.5800000e+00 5.9700000e+00 0.0000000e+00 
5.5533333e+00 6.0300000e+00 0.0000000e+00 
5.5800000e+00 5.9900000e+00 0.0000000e+00 
5.5800000e+00 6.0100000e+00 0.0000000e+00 
5.5800000e+00 6.0300000e+00 0.0000000e+00 
5.6066667e+00 5.9700000e+00 0.0000000e+00 
5.6066667e+00 5.9900000e+00 0.0000000e+00 
5.6066667e+00 6.0100000e+00 0.0000000e+00 
5.6066667e+00 6.0300000e+00 0.0000000e+00 
5.6333333e+00 5.9700000e+00 0.0000000e+00 
5.6333333e+00 5.9900000e+00 0.0000000e+00 
5.6333333e+00 6.0100000e+00 0.0000000e+00 
5.6333333e+00 6.0300000e+00 0.0000000e+00 
5.6600000e+00 5.9700000e+00 0.0000000e+00 
5.6600000e+00 5.9900000e+00 0.0000000e+00 
5.6600000e+00 6.0100000e+00 0.0000000e+00 
5.6600000e+00 6.0300000e+00 0.0000000e+00 
5.6866667e+00 5.9700000e+00 0.0000000e+00 
5.6866667e+00 5.9900000e+00 0.0000000e+00 
5.6866667e+00 6.0100000e+00 0.0000000e+00 
5.6866667e+00 6.0300000e+00 0.0000000e+00 
5.7133333e+00 5.9700000e+00 0.0000000e+00 
5.7133333e+00 5.9900000e+00 0.0000000e+00 
5.7133333e+00 6.0100000e+00 0.0000000e+00 
5.7133333e+00 6.0300000e+00 0.0000000e+00 
5.7400000e+00 5.9700000e+00 0.0000000e+00 
5.7400000e+00 5.9900000e+00 0.0000000e+00 
5.7400000e+00 6.0100000e+00 0.0000000e+00 
5.7400000e+00 6.0300000e+00 0.0000000e+00 
5.7666667e+00 5.9700000e+00 0.0000000e+00 
5.7666667e+00 5.9900000e+00 0.0000000e+00 
5.7666667e+00 6.0100000e+00 0.0000000e+00 
5.7666667e+00 6.0300000e+00 0.0000000e+00 
5.7933333e+00 5.9700000e+00 0.0000000e+00 
5.7933333e+00 5.9900000e+00 0.0000000e+00 
5.7933333e+00 6.0100000e+00 0.0000000e+00 
5.7933333e+00 6.0300000e+00 0.0000000e+00 
5.8200000e+00 5.9700000e+00 0.0000000e+00 
5.8200000e+00 5.9900000e+00 0.0000000e+00 
5.8200000e+00 6.0100000e+00 0.0000000e+00 
5.8200000e+00 6.0300000e+00 0.0000000e+00 
5.8466667e+00 5.9700000e+00 0.0000000e+00 
5.8466667e+00 5.9900000e+00 0.0000000e+00 
5.8466667e+00 6.0100000e+00 0.0000000e+00 
5.8466667e+00 6.0300000e+00 0.0000000e+00 
5.8733333e+00 5.9700000e+00 0.0000000e+00 
5.8733333e+00 5.9900000e+00 0.0000000e+00 
5.8733333e+00 6.0100000e+00 0.0000000e+00 
5.8733333e+00 6.0300000e+00 0.0000000e+00 
5.9000000e+00 5.9700000e+00 0.0000000e+00 
5.9000000e+00 5.9900000e+00 0.0000000e+00 
5.9000000e+00 6.0100000e+00 0.0000000e+00 
5.9000000e+00 6.0300000e+00 0.0000000e+00 
5.9266667e+00 5.9700000e+00 0.0000000e+00 
5.9266667e+00 5.9900000e+00 0.0000000e+00 
5.9266667e+00 6.0100000e+00 0.0000000e+00 
5.9266667e+00 6.0300000e+00 0.0000000e+00 
5.9533333e+00 5.9700000e+00 0.0000000e+00 
5.9533333e+00 5.9900000e+00 0.0000000e+00 
5.9533333e+00 6.0100000e+00 0.0000000e+00 
5.9533333e+00 6.0300000e+00 0.0000000e+00 
5.9800000e+00 5.9700000e+00 0.0000000e+00 
5.9800000e+00 5.9900000e+00 0.0000000e+00 
5.9800000e+00 6.0100000e+00 0.0000000e+00 
5.9800000e+00 6.0300000e+00 0.0000000e+00 
6.0066667e+00 5.9700000e+00 0.0000000e+00 
6.0066667e+00 5.9900000e+00 0.0000000e+00 
6.0066667e+00 6.0100000e+00 0.0000000e+00 
6.0066667e+00 6.0300000e+00 0.0000000e+00 
6.0333333e+00 5.9700000e+00 0.0000000e+00 
6.0333333e+00 5.9900000e+00 0.0000000e+00 
6.0333333e+00 6.0100000e+00 0.0000000e+00 
6.0333333e+00 6.0300000e+00 0.0000000e+00 
6.0600000e+00 5.9700000e+00 0.0000000e+00 
6.0600000e+00 5.9900000e+00 0.0000000e+00 
6.0600000e+00 6.0100000e+00 0.0000000e+00 
6.0600000e+00 6.0300000e+00 0.0000000e+00 
6.0866667e+00 5.9700000e+00 0.0000000e+00 
6.0866667e+00 5.9900000e+00 0.0000000e+00 
6.0866667e+00 6.0100000e+00 0.0000000e+00 
6.0866667e+00 6.0300000e+00 0.0000000e+00 
6.1133333e+00 5.9700000e+00 0.0000000e+00 
6.1133333e+00 5.9900000e+00 0.0000000e+00 
6.1133333e+00 6.0100000e+00 0.0000000e+00 
6.1133333e+00 6.0300000e+00 0.0000000e+00 
6.1400000e+00 5.9700000e+00 0.0000000e+00 
6.1400000e+00 5.9900000e+00 0.0000000e+00 
6.1400000e+00 6.0100000e+00 0.0000000e+00 
6.1400000e+00 6.0300000e+00 0.0000000e+00 
6.1666667e+00 5.9700000e+00 0.0000000e+00 
6.1666667e+00 5.9900000e+00 0.0000000e+00 
6.1666667e+00 6.0100000e+00 0.0000000e+00 
6.1666667e+00 6.0300000e+00 0.0000000e+00 
6.1933333e+00 5.9700000e+00 0.0000000e+00 
6.1933333e+00 5.9900000e+00 0.0000000e+00 
6.1933333e+00 6.0100000e+00 0.0000000e+00 
6.1933333e+00 6.0300000e+00 0.0000000e+00 
6.2200000e+00 5.9700000e+00 0.0000000e+00 
6.2200000e+00 5.9900000e+00 0.0000000e+00 
6.2200000e+00 6.0100000e+00 0.0000000e+00 
6.2200000e+00 6.0300000e+00 0.0000000e+00 
6.2466667e+00 5.9700000e+00 0.0000000e+00 
6.2466667e+00 5.9900000e+00 0.0000000e+00 
6.2466667e+00 6.0100000e+00 0.0000000e+00 
6.2466667e+00 6.0300000e+00 0.0000000e+00 
6.2733333e+00 5.9700000e+00 0.0000000e+00 
6.2733333e+00 5.9900000e+00 0.0000000e+00 
6.2733333e+00 6.0100000e+00 0.0000000e+00 
6.2733333e+00 6.0300000e+00 0.0000000e+00 
6.3000000e+00 5.9700000e+00 0.0000000e+00 
6.3000000e+00 5.9900000e+00 0.0000000e+00 
6.3000000e+00 6.0100000e+00 0.0000000e+00 
6.3000000e+00 6.0300000e+00 0.0000000e+00 
6.3266667e+00 5.9700000e+00 0.0000000e+00 
6.3266667e+00 5.9900000e+00 0.0000000e+00 
6.3266667e+00 6.0100000e+00 0.0000000e+00 
6.3266667e+00 6.0300000e+00 0.0000000e+00 
6.3533333e+00 5.9700000e+00 0.0000000e+00 
6.3533333e+00 5.9900000e+00 0.0000000e+00 
6.3533333e+00 6.0100000e+00 0.0000000e+00 
6.3533333e+00 6.0300000e+00 0.0000000e+00 
6.3800000e+00 5.9700000e+00 0.0000000e+00 
6.3800000e+00 5.9900000e+00 0.0000000e+00 
6.3800000e+00 6.0100000e+00 0.0000000e+00 
6.3800000e+00 6.0300000e+00 0.0000000e+00 
6.4066667e+00 5.9700000e+00 0.0000000e+00 
6.4066667e+00 5.9900000e+00 0.0000000e+00 
6.4066667e+00 6.0100000e+00 0.0000000e+00 
6.4066667e+00 6.0300000e+00 0.0000000e+00 
6.4333333e+00 5.9700000e+00 0.0000000e+00 
6.4333333e+00 5.9900000e+00 0.0000000e+00 
6.4333333e+00 6.0100000e+00 0.0000000e+00 
6.4333333e+00 6.0300000e+00 0.0000000e+00 
6.4600000e+00 5.9700000e+00 0.0000000e+00 
6.4600000e+00 5.9900000e+00 0.0000000e+00 
6.4600000e+00 6.0100000e+00 0.0000000e+00 
6.4600000e+00 6.0300000e+00 0.0000000e+00 
6.4866667e+00 5.9700000e+00 0.0000000e+00 
6.4866667e+00 5.9900000e+00 0.0000000e+00 
6.4866667e+00 6.0100000e+00 0.0000000e+00 
6.4866667e+00 6.0300000e+00 0.0000000e+00 
6.5133333e+00 5.9700000e+00 0.0000000e+00 
6.5133333e+00 5.9900000e+00 0.0000000e+00 
6.5133333e+00 6.0100000e+00 0.0000000e+00 
6.5133333e+00 6.0300000e+00 0.0000000e+00 
6.5400000e+00 5.9700000e+00 0.0000000e+00 
6.5400000e+00 5.9900000e+00 0.0000000e+00 
6.5400000e+00 6.0100000e+00 0.0000000e+00 
6.5400000e+00 6.0300000e+00 0.0000000e+00 
6.5666667e+00 5.9700000e+00 0.0000000e+00 
6.5666667e+00 5.9900000e+00 0.0000000e+00 
6.5666667e+00 6.0100000e+00 0.0000000e+00 
6.5666667e+00 6.0300000e+00 0.0000000e+00 
6.5933333e+00 5.9700000e+00 0.0000000e+00 
6.5933333e+00 5.9900000e+00 0.0000000e+00 
6.5933333e+00 6.0100000e+00 0.0000000e+00 
6.5933333e+00 6.0300000e+00 0.0000000e+00 
6.6200000e+00 5.9700000e+00 0.0000000e+00 
6.6200000e+00 5.9900000e+00 0.0000000e+00 
6.6200000e+00 6.0100000e+00 0.0000000e+00 
6.6200000e+00 6.0300000e+00 0.0000000e+00 
6.6466667e+00 5.9700000e+00 0.0000000e+00 
6.6466667e+00 5.9900000e+00 0.0000000e+00 
6.6466667e+00 6.0100000e+00 0.0000000e+00 
6.6466667e+00 6.0300000e+00 0.0000000e+00 
6.6733333e+00 5.9700000e+00 0.0000000e+00 
6.6733333e+00 5.9900000e+00 0.0000000e+00 
6.6733333e+00 6.0100000e+00 0.0000000e+00 
6.6733333e+00 6.0300000e+00 0.0000000e+00 
6.7000000e+00 5.9700000e+00 0.0000000e+00 
6.7000000e+00 5.9900000e+00 0.0000000e+00 
6.7000000e+00 6.0100000e+00 0.0000000e+00 
6.7000000e+00 6.0300000e+00 0.0000000e+00 
6.7266667e+00 5.9700000e+00 0.0000000e+00 
6.7266667e+00 5.9900000e+00 0.0000000e+00 
6.7266667e+00 6.0100000e+00 0.0000000e+00 
6.7266667e+00 6.0300000e+00 0.0000000e+00 
6.7533333e+00 5.9700000e+00 0.0000000e+00 
6.7533333e+00 5.9900000e+00 0.0000000e+00 
6.7533333e+00 6.0100000e+00 0.0000000e+00 
6.7533333e+00 6.0300000e+00 0.0000000e+00 
6.7800000e+00 5.9700000e+00 0.0000000e+00 
6.7800000e+00 5.9900000e+00 0.0000000e+00 
6.7800000e+00 6.0100000e+00 0.0000000e+00 
6.7800000e+00 6.0300000e+00 0.0000000e+00 
6.8066667e+00 5.9700000e+00 0.0000000e+00 
6.8066667e+00 5.9900000e+00 0.0000000e+00 
6.8066667e+00 6.0100000e+00 0.0000000e+00 
6.8066667e+00 6.0300000e+00 0.0000000e+00 
6.8333333e+00 5.9700000e+00 0.0000000e+00 
6.8333333e+00 5.9900000e+00 0.0000000e+00 
6.8333333e+00 6.0100000e+00 0.0000000e+00 
6.8333333e+00 6.0300000e+00 0.0000000e+00 
6.8600000e+00 5.9700000e+00 0.0000000e+00 
6.8600000e+00 5.9900000e+00 0.0000000e+00 
6.8600000e+00 6.0100000e+00 0.0000000e+00 
6.8600000e+00 6.0300000e+00 0.0000000e+00 
6.8866667e+00 5.9700000e+00 0.0000000e+00 
6.8866667e+00 5.9900000e+00 0.0000000e+00 
6.8866667e+00 6.0100000e+00 0.0000000e+00 
6.8866667e+00 6.0300000e+00 0.0000000e+00 
6.9133333e+00 5.9700000e+00 0.0000000e+00 
6.9133333e+00 5.9900000e+00 0.0000000e+00 
6.9133333e+00 6.0100000e+00 0.0000000e+00 
6.9133333e+00 6.0300000e+00 0.0000000e+00 
6.9400000e+00 5.9700000e+00 0.0000000e+00 
6.9400000e+00 5.9900000e+00 0.0000000e+00 
6.9400000e+00 6.0100000e+00 0.0000000e+00 
6.9400000e+00 6.0300000e+00 0.0000000e+00 
6.9666667e+00 5.9700000e+00 0.0000000e+00 
6.9666667e+00 5.9900000e+00 0.0000000e+00 
6.9666667e+00 6.0100000e+00 0.0000000e+00 
6.9666667e+00 6.0300000e+00 0.0000000e+00 
6.9933333e+00 5.9700000e+00 0.0000000e+00 
6.9933333e+00 5.9900000e+00 0.0000000e+00 
6.9933333e+00 6.0100000e+00 0.0000000e+00 
6.9933333e+00 6.0300000e+00 0.0000000e+00 
7.0200000e+00 5.9700000e+00 0.0000000e+00 
7.0200000e+00 5.9900000e+00 0.0000000e+00 
[...]
POINT_DATA 604
FIELD FieldData 2
DISPLACEMENT 3 604  float
0.0000000e+00 0.0000000e+00 0.0000000e+00 
0.0000000e+00 0.0000000e+00 0.0000000e+00 
-2.3777750e-07 -1.4390838e-07 0.0000000e+00 
-9.7622105e-08 -6.8651649e-08 0.0000000e+00 
0.0000000e+00 0.0000000e+00 0.0000000e+00 
3.2189573e-08 -4.0702803e-08 0.0000000e+00 
-4.9427117e-07 -3.9591427e-07 0.0000000e+00 
-2.1954208e-07 -3.2641489e-07 0.0000000e+00 
0.0000000e+00 0.0000000e+00 0.0000000e+00 
1.5243028e-07 -5.0967574e-08 0.0000000e+00 
6.1619418e-08 -2.9306801e-07 0.0000000e+00 
-7.7046493e-07 -8.5336995e-07 0.0000000e+00 
3.3344188e-07 -3.0103878e-07 0.0000000e+00 
-3.4111735e-07 -7.8001664e-07 0.0000000e+00 
9.4908189e-08 -7.4891628e-07 0.0000000e+00 
5.2544212e-07 -7.5974928e-07 0.0000000e+00 
-1.0622891e-06 -1.5256475e-06 0.0000000e+00 
-4.6718348e-07 -1.4502492e-06 0.0000000e+00 
1.3415214e-07 -1.4192164e-06 0.0000000e+00 
7.2989467e-07 -1.4326602e-06 0.0000000e+00 
-1.3675000e-06 -2.4259783e-06 0.0000000e+00 
-5.9795777e-07 -2.3480159e-06 0.0000000e+00 
1.7749309e-07 -2.3167990e-06 0.0000000e+00 
9.4775130e-07 -2.3322352e-06 0.0000000e+00 
-1.6857345e-06 -3.5649015e-06 0.0000000e+00 
-7.3328784e-07 -3.4847699e-06 0.0000000e+00 
2.2468284e-07 -3.4533941e-06 0.0000000e+00 
1.1777794e-06 -3.4709297e-06 0.0000000e+00 
-2.0160817e-06 -4.9540472e-06 0.0000000e+00 
-8.7303071e-07 -4.8714510e-06 0.0000000e+00 
2.7533602e-07 -4.8397408e-06 0.0000000e+00 
1.4192950e-06 -4.8588142e-06 0.0000000e+00 
-2.3580798e-06 -6.6025261e-06 0.0000000e+00 
-1.0169281e-06 -6.5180316e-06 0.0000000e+00 
3.2918408e-07 -6.4861499e-06 0.0000000e+00 
1.6712299e-06 -6.5070438e-06 0.0000000e+00 
-2.7108483e-06 -8.5209403e-06 0.0000000e+00 
-1.1647998e-06 -8.4341600e-06 0.0000000e+00 
3.8588116e-07 -8.4018833e-06 0.0000000e+00 
1.9328961e-06 -8.4239555e-06 0.0000000e+00 
-3.0736522e-06 -1.0716739e-05 0.0000000e+00 
-1.3163987e-06 -1.0628337e-05 0.0000000e+00 
4.4515988e-07 -1.0595863e-05 0.0000000e+00 
2.2033704e-06 -1.0619484e-05 0.0000000e+00 
-3.4457293e-06 -1.3199226e-05 0.0000000e+00 
-1.4714715e-06 -1.3108814e-05 0.0000000e+00 
5.0671939e-07 -1.3075931e-05 0.0000000e+00 
2.4819235e-06 -1.3100399e-05 0.0000000e+00 
-3.8262499e-06 -1.5974510e-05 0.0000000e+00 
-1.6297598e-06 -1.5882763e-05 0.0000000e+00 
5.7030143e-07 -1.5849684e-05 0.0000000e+00 
2.7677177e-06 -1.5875435e-05 0.0000000e+00 
-4.2144427e-06 -1.9050511e-05 0.0000000e+00 
-1.7909894e-06 -1.8957029e-05 0.0000000e+00 
6.3563942e-07 -1.8923535e-05 0.0000000e+00 
3.0599208e-06 -1.8949835e-05 0.0000000e+00 
-4.6094521e-06 -2.2431853e-05 0.0000000e+00 
-1.9548595e-06 -2.2337336e-05 0.0000000e+00 
7.0247789e-07 -2.2303697e-05 0.0000000e+00 
3.3578179e-06 -2.2331005e-05 0.0000000e+00 
-5.0105402e-06 -2.6125109e-05 0.0000000e+00 
-2.1210394e-06 -2.6029175e-05 0.0000000e+00 
7.7060616e-07 -2.5995045e-05 0.0000000e+00 
3.6604060e-06 -2.6022680e-05 0.0000000e+00 
-5.4166330e-06 -3.0134044e-05 0.0000000e+00 
-2.2894575e-06 -3.0036789e-05 0.0000000e+00 
8.3952415e-07 -3.0002114e-05 0.0000000e+00 
3.9670448e-06 -3.0029861e-05 0.0000000e+00 
-5.8269059e-06 -3.4461388e-05 0.0000000e+00 
-2.4595646e-06 -3.4363606e-05 0.0000000e+00 
9.0921005e-07 -3.4328809e-05 0.0000000e+00 
4.2769142e-06 -3.4357174e-05 0.0000000e+00 
-6.2405897e-06 -3.9111742e-05 0.0000000e+00 
-2.6310347e-06 -3.9012894e-05 0.0000000e+00 
9.7942644e-07 -3.8977683e-05 0.0000000e+00 
4.5890599e-06 -3.9005832e-05 0.0000000e+00 
-6.6565391e-06 -4.4085521e-05 0.0000000e+00 
-2.8035724e-06 -4.3986493e-05 0.0000000e+00 
1.0499072e-06 -4.3951144e-05 0.0000000e+00 
4.9028829e-06 -4.3979670e-05 0.0000000e+00 
-7.0740701e-06 -4.9385839e-05 0.0000000e+00 
-2.9767998e-06 -4.9286078e-05 0.0000000e+00 
1.1204061e-06 -4.9250312e-05 0.0000000e+00 
5.2173756e-06 -4.9278233e-05 0.0000000e+00 
-7.4919554e-06 -5.5011630e-05 0.0000000e+00 
-3.1503694e-06 -5.4912063e-05 0.0000000e+00 
1.1906566e-06 -5.4876189e-05 0.0000000e+00 
5.5318469e-06 -5.4904214e-05 0.0000000e+00 
-7.9093832e-06 -6.0964540e-05 0.0000000e+00 
-3.3238966e-06 -6.0864506e-05 0.0000000e+00 
1.2604168e-06 -6.0828186e-05 0.0000000e+00 
5.8451117e-06 -6.0855250e-05 0.0000000e+00 
-8.3250270e-06 -6.7241360e-05 0.0000000e+00 
-3.4969984e-06 -6.7141926e-05 0.0000000e+00 
1.3293876e-06 -6.7105554e-05 0.0000000e+00 
6.1566157e-06 -6.7132422e-05 0.0000000e+00 
-8.7381137e-06 -7.3842010e-05 0.0000000e+00 
-3.6691493e-06 -7.3742616e-05 0.0000000e+00 
1.3974159e-06 -7.3705944e-05 0.0000000e+00 
6.4650209e-06 -7.3731643e-05 0.0000000e+00 
-9.1470196e-06 -8.0761711e-05 0.0000000e+00 
-3.8399450e-06 -8.0663351e-05 0.0000000e+00 
1.4641937e-06 -8.0626665e-05 0.0000000e+00 
6.7697881e-06 -8.0651857e-05 0.0000000e+00 
-9.5509066e-06 -8.7998441e-05 0.0000000e+00 
-4.0089017e-06 -8.7900495e-05 0.0000000e+00 
1.5294623e-06 -8.7863475e-05 0.0000000e+00 
7.0695581e-06 -8.7887052e-05 0.0000000e+00 
-9.9482382e-06 -9.5545296e-05 0.0000000e+00 
-4.1755683e-06 -9.5448851e-05 0.0000000e+00 
1.5928873e-06 -9.5411911e-05 0.0000000e+00 
7.3636361e-06 -9.5434625e-05 0.0000000e+00 
-1.0338115e-05 -1.0339830e-04 0.0000000e+00 
-4.3393841e-06 -1.0330275e-04 0.0000000e+00 
1.6543497e-06 -1.0326563e-04 0.0000000e+00 
7.6504702e-06 -1.0328662e-04 0.0000000e+00 
-1.0718827e-05 -1.1154835e-04 0.0000000e+00 
-4.4999286e-06 -1.1145472e-04 0.0000000e+00 
1.7135464e-06 -1.1141779e-04 0.0000000e+00 
7.9298000e-06 -1.1143761e-04 0.0000000e+00 
-1.1089814e-05 -1.1998915e-04 0.0000000e+00 
-4.6564807e-06 -1.1989720e-04 0.0000000e+00 
1.7703654e-06 -1.1986027e-04 0.0000000e+00 
8.2001546e-06 -1.1987809e-04 0.0000000e+00 
-1.1449120e-05 -1.2871132e-04 0.0000000e+00 
-4.8087435e-06 -1.2862130e-04 0.0000000e+00 
1.8245115e-06 -1.2858439e-04 0.0000000e+00 
8.4607965e-06 -1.2860049e-04 0.0000000e+00 
-1.1795488e-05 -1.3770419e-04 0.0000000e+00 
-4.9560267e-06 -1.3761673e-04 0.0000000e+00 
1.8760120e-06 -1.3758026e-04 0.0000000e+00 
8.7114870e-06 -1.3759472e-04 0.0000000e+00 
-1.2128409e-05 -1.4695782e-04 0.0000000e+00 
-5.0976295e-06 -1.4687310e-04 0.0000000e+00 
1.9248122e-06 -1.4683706e-04 0.0000000e+00 
8.9509015e-06 -1.4684959e-04 0.0000000e+00 
-1.2445775e-05 -1.5646071e-04 0.0000000e+00 
-5.2331600e-06 -1.5637900e-04 0.0000000e+00 
1.9705958e-06 -1.5634350e-04 0.0000000e+00 
9.1785627e-06 -1.5635406e-04 0.0000000e+00 
-1.2746889e-05 -1.6620018e-04 0.0000000e+00 
-5.3620306e-06 -1.6612173e-04 0.0000000e+00 
2.0134273e-06 -1.6608691e-04 0.0000000e+00 
9.3929439e-06 -1.6609575e-04 0.0000000e+00 
-1.3030508e-05 -1.7616282e-04 0.0000000e+00 
-5.4838970e-06 -1.7608769e-04 0.0000000e+00 
2.0530485e-06 -1.7605356e-04 0.0000000e+00 
9.5944298e-06 -1.7606017e-04 0.0000000e+00 
-1.3296325e-05 -1.8633393e-04 0.0000000e+00 
-5.5981950e-06 -1.8626275e-04 0.0000000e+00 
2.0896381e-06 -1.8622967e-04 0.0000000e+00 
9.7818727e-06 -1.8623484e-04 0.0000000e+00 
-1.3542885e-05 -1.9670002e-04 0.0000000e+00 
-5.7047343e-06 -1.9663236e-04 0.0000000e+00 
2.1230856e-06 -1.9660010e-04 0.0000000e+00 
9.9553759e-06 -1.9660289e-04 0.0000000e+00 
-1.3770300e-05 -2.0724431e-04 0.0000000e+00 
-5.8029981e-06 -2.0718128e-04 0.0000000e+00 
2.1534376e-06 -2.0715027e-04 0.0000000e+00 
1.0114362e-05 -2.0715158e-04 0.0000000e+00 
-1.3977281e-05 -2.1795417e-04 0.0000000e+00 
-5.8928367e-06 -2.1789480e-04 0.0000000e+00 
2.1806112e-06 -2.1786478e-04 0.0000000e+00 
1.0258846e-05 -2.1786358e-04 0.0000000e+00 
-1.4163772e-05 -2.2881086e-04 0.0000000e+00 
-5.9737640e-06 -2.2875673e-04 0.0000000e+00 
2.2048661e-06 -2.2872836e-04 0.0000000e+00 
1.0388026e-05 -2.2872618e-04 0.0000000e+00 
-1.4328865e-05 -2.3980197e-04 0.0000000e+00 
-6.0456222e-06 -2.3975164e-04 0.0000000e+00 
2.2260900e-06 -2.3972437e-04 0.0000000e+00 
1.0502535e-05 -2.3971954e-04 0.0000000e+00 
-1.4472487e-05 -2.5090739e-04 0.0000000e+00 
-6.1081193e-06 -2.5086262e-04 0.0000000e+00 
2.2444865e-06 -2.5083718e-04 0.0000000e+00 
1.0601729e-05 -2.5083168e-04 0.0000000e+00 
-1.4593970e-05 -2.6211459e-04 0.0000000e+00 
-6.1612345e-06 -2.6207368e-04 0.0000000e+00 
2.2599654e-06 -2.6204933e-04 0.0000000e+00 
1.0685973e-05 -2.6204116e-04 0.0000000e+00 
-1.4693400e-05 -2.7340213e-04 0.0000000e+00 
-6.2047240e-06 -2.7336715e-04 0.0000000e+00 
2.2726887e-06 -2.7334540e-04 0.0000000e+00 
1.0755216e-05 -2.7333675e-04 0.0000000e+00 
-1.4770749e-05 -2.8475605e-04 0.0000000e+00 
-6.2377521e-06 -2.8472709e-04 0.0000000e+00 
2.2837331e-06 -2.8470798e-04 0.0000000e+00 
1.0809599e-05 -2.8469924e-04 0.0000000e+00 
-1.4826147e-05 -2.9616288e-04 0.0000000e+00 
-6.2612470e-06 -2.9613760e-04 0.0000000e+00 
2.2923917e-06 -2.9611972e-04 0.0000000e+00 
1.0850028e-05 -2.9610841e-04 0.0000000e+00 
-1.4860447e-05 -3.0760073e-04 0.0000000e+00 
-6.2752248e-06 -3.0758164e-04 0.0000000e+00 
2.2989830e-06 -3.0756615e-04 0.0000000e+00 
1.0876967e-05 -3.0755517e-04 0.0000000e+00 
-1.4874153e-05 -3.1906077e-04 0.0000000e+00 
-6.2798913e-06 -3.1904504e-04 0.0000000e+00 
2.3037848e-06 -3.1903097e-04 0.0000000e+00 
1.0890966e-05 -3.1901760e-04 0.0000000e+00 
-1.4868112e-05 -3.3052161e-04 0.0000000e+00 
-6.2753626e-06 -3.3051212e-04 0.0000000e+00 
2.3071765e-06 -3.3050066e-04 0.0000000e+00 
1.0892796e-05 -3.3048821e-04 0.0000000e+00 
-1.4843096e-05 -3.4197659e-04 0.0000000e+00 
-6.2619609e-06 -3.4197012e-04 0.0000000e+00 
2.3094291e-06 -3.4196008e-04 0.0000000e+00 
1.0883500e-05 -3.4194552e-04 0.0000000e+00 
-1.4800029e-05 -3.5340533e-04 0.0000000e+00 
-6.2400034e-06 -3.5340483e-04 0.0000000e+00 
2.3108698e-06 -3.5339745e-04 0.0000000e+00 
1.0864128e-05 -3.5338424e-04 0.0000000e+00 
-1.4740207e-05 -3.6480315e-04 0.0000000e+00 
-6.2098722e-06 -3.6480526e-04 0.0000000e+00 
2.3118458e-06 -3.6479928e-04 0.0000000e+00 
1.0835399e-05 -3.6478430e-04 0.0000000e+00 
-1.4664617e-05 -3.7615155e-04 0.0000000e+00 
-6.1720735e-06 -3.7615911e-04 0.0000000e+00 
2.3125555e-06 -3.7615565e-04 0.0000000e+00 
1.0798737e-05 -3.7614221e-04 0.0000000e+00 
-1.4574794e-05 -3.8744773e-04 0.0000000e+00 
-6.1270507e-06 -3.8745743e-04 0.0000000e+00 
2.3133810e-06 -3.8745533e-04 0.0000000e+00 
1.0754841e-05 -3.8744049e-04 0.0000000e+00 
-1.4471806e-05 -3.9867532e-04 0.0000000e+00 
-6.0752878e-06 -3.9869007e-04 0.0000000e+00 
2.3146176e-06 -3.9869049e-04 0.0000000e+00 
1.0705183e-05 -3.9867760e-04 0.0000000e+00 
-1.4357204e-05 -4.0983394e-04 0.0000000e+00 
-6.0172458e-06 -4.0985036e-04 0.0000000e+00 
2.3166494e-06 -4.0985205e-04 0.0000000e+00 
1.0650633e-05 -4.0983816e-04 0.0000000e+00 
-1.4232000e-05 -4.2090955e-04 0.0000000e+00 
-5.9535276e-06 -4.2093036e-04 0.0000000e+00 
2.3196868e-06 -4.2093440e-04 0.0000000e+00 
1.0592726e-05 -4.2092267e-04 0.0000000e+00 
-1.4097944e-05 -4.3190358e-04 0.0000000e+00 
-5.8846486e-06 -4.3192559e-04 0.0000000e+00 
2.3240656e-06 -4.3193069e-04 0.0000000e+00 
1.0532137e-05 -4.3191839e-04 0.0000000e+00 
-1.3955773e-05 -4.4280450e-04 0.0000000e+00 
-5.8113277e-06 -4.4283014e-04 0.0000000e+00 
2.3298345e-06 -4.4283776e-04 0.0000000e+00 
1.0470671e-05 -4.4282761e-04 0.0000000e+00 
-1.3807460e-05 -4.5361259e-04 0.0000000e+00 
-5.7330994e-06 -4.5364140e-04 0.0000000e+00 
2.3382098e-06 -4.5365153e-04 0.0000000e+00 
1.0408517e-05 -4.5364347e-04 0.0000000e+00 
-1.3654115e-05 -4.6432841e-04 0.0000000e+00 
-5.6514638e-06 -4.6435778e-04 0.0000000e+00 
2.3484199e-06 -4.6436872e-04 0.0000000e+00 
1.0346714e-05 -4.6436061e-04 0.0000000e+00 
-1.3496507e-05 -4.7494425e-04 0.0000000e+00 
-5.5669392e-06 -4.7497635e-04 0.0000000e+00 
2.3605530e-06 -4.7498908e-04 0.0000000e+00 
1.0286432e-05 -4.7498324e-04 0.0000000e+00 
-1.3336251e-05 -4.8546508e-04 0.0000000e+00 
-5.4798005e-06 -4.8549736e-04 0.0000000e+00 
2.3749180e-06 -4.8551097e-04 0.0000000e+00 
1.0227682e-05 -4.8550529e-04 0.0000000e+00 
-1.3173766e-05 -4.9588538e-04 0.0000000e+00 
-5.3905447e-06 -4.9591991e-04 0.0000000e+00 
2.3915092e-06 -4.9593512e-04 0.0000000e+00 
1.0171588e-05 -4.9593173e-04 0.0000000e+00 
-1.3010328e-05 -5.0621103e-04 0.0000000e+00 
-5.2994395e-06 -5.0624546e-04 0.0000000e+00 
2.4105016e-06 -5.0626142e-04 0.0000000e+00 
1.0118208e-05 -5.0625840e-04 0.0000000e+00 
-1.2846137e-05 -5.1643818e-04 0.0000000e+00 
-5.2069387e-06 -5.1647437e-04 0.0000000e+00 
2.4318102e-06 -5.1649171e-04 0.0000000e+00 
1.0068428e-05 -5.1649087e-04 0.0000000e+00 
-1.2682313e-05 -5.2657306e-04 0.0000000e+00 
-5.1132274e-06 -5.2660896e-04 0.0000000e+00 
2.4555410e-06 -5.2662696e-04 0.0000000e+00 
1.0022026e-05 -5.2662659e-04 0.0000000e+00 
-1.2518851e-05 -5.3661321e-04 0.0000000e+00 
-5.0186696e-06 -5.3665048e-04 0.0000000e+00 
2.4815603e-06 -5.3666967e-04 0.0000000e+00 
9.9796512e-06 -5.3667135e-04 0.0000000e+00 
-1.2356578e-05 -5.4656489e-04 0.0000000e+00 
-4.9233790e-06 -5.4660176e-04 0.0000000e+00 
2.5098996e-06 -5.4662150e-04 0.0000000e+00 
9.9409828e-06 -5.4662370e-04 0.0000000e+00 
-1.2195295e-05 -5.5642661e-04 0.0000000e+00 
-4.8276490e-06 -5.5646454e-04 0.0000000e+00 
2.5403808e-06 -5.5648528e-04 0.0000000e+00 
9.9064333e-06 -5.5648934e-04 0.0000000e+00 
-1.2035688e-05 -5.6620427e-04 0.0000000e+00 
-4.7315272e-06 -5.6624175e-04 0.0000000e+00 
2.5729790e-06 -5.6626295e-04 0.0000000e+00 
9.8755184e-06 -5.6626752e-04 0.0000000e+00 
-1.1877415e-05 -5.7589707e-04 0.0000000e+00 
-4.6352506e-06 -5.7593533e-04 0.0000000e+00 
2.6074740e-06 -5.7595735e-04 0.0000000e+00 
9.8484783e-06 -5.7596354e-04 0.0000000e+00 
-1.1720952e-05 -5.8551027e-04 0.0000000e+00 
-4.5388370e-06 -5.8554811e-04 0.0000000e+00 
2.6437805e-06 -5.8557044e-04 0.0000000e+00 
9.8247705e-06 -5.8557709e-04 0.0000000e+00 
-1.1565794e-05 -5.9504349e-04 0.0000000e+00 
-4.4425068e-06 -5.9508185e-04 0.0000000e+00 
2.6816246e-06 -5.9510493e-04 0.0000000e+00 
9.8045743e-06 -5.9511289e-04 0.0000000e+00 
-1.1412349e-05 -6.0450023e-04 0.0000000e+00 
-4.3459888e-06 -6.0453892e-04 0.0000000e+00 
2.7211655e-06 -6.0456272e-04 0.0000000e+00 
9.7872483e-06 -6.0457178e-04 0.0000000e+00 
-1.1260607e-05 -6.1388324e-04 0.0000000e+00 
-4.2496704e-06 -6.1392156e-04 0.0000000e+00 
2.7619120e-06 -6.1394549e-04 0.0000000e+00 
9.7724581e-06 -6.1395489e-04 0.0000000e+00 
-1.1110186e-05 -6.2319254e-04 0.0000000e+00 
-4.1536427e-06 -6.2323114e-04 0.0000000e+00 
2.8036508e-06 -6.2325547e-04 0.0000000e+00 
9.7601709e-06 -6.2326580e-04 0.0000000e+00 
-1.0961342e-05 -6.3243127e-04 0.0000000e+00 
-4.0578471e-06 -6.3246952e-04 0.0000000e+00 
2.8463106e-06 -6.3249399e-04 0.0000000e+00 
9.7497731e-06 -6.3250454e-04 0.0000000e+00 
-1.0813681e-05 -6.4159952e-04 0.0000000e+00 
-3.9623782e-06 -6.4163796e-04 0.0000000e+00 
2.8896807e-06 -6.4166271e-04 0.0000000e+00 
9.7412810e-06 -6.4167397e-04 0.0000000e+00 
-1.0667406e-05 -6.5069978e-04 0.0000000e+00 
-3.8672024e-06 -6.5073791e-04 0.0000000e+00 
2.9336766e-06 -6.5076273e-04 0.0000000e+00 
9.7341683e-06 -6.5077414e-04 0.0000000e+00 
-1.0522168e-05 -6.5973213e-04 0.0000000e+00 
-3.7724077e-06 -6.5977036e-04 0.0000000e+00 
2.9781142e-06 -6.5979536e-04 0.0000000e+00 
9.7284470e-06 -6.5980730e-04 0.0000000e+00 
-1.0378156e-05 -6.6869848e-04 0.0000000e+00 
-3.6779691e-06 -6.6873643e-04 0.0000000e+00 
3.0229219e-06 -6.6876145e-04 0.0000000e+00 
9.7236752e-06 -6.6877346e-04 0.0000000e+00 
-1.0235082e-05 -6.7759894e-04 0.0000000e+00 
-3.5839704e-06 -6.7763690e-04 0.0000000e+00 
3.0679391e-06 -6.7766201e-04 0.0000000e+00 
9.7198941e-06 -6.7767438e-04 0.0000000e+00 
-1.0093148e-05 -6.8643493e-04 0.0000000e+00 
-3.4903989e-06 -6.8647264e-04 0.0000000e+00 
3.1131129e-06 -6.8649772e-04 0.0000000e+00 
9.7166990e-06 -6.8651011e-04 0.0000000e+00 
-9.9521362e-06 -6.9520665e-04 0.0000000e+00 
-3.3973380e-06 -6.9524429e-04 0.0000000e+00 
3.1583108e-06 -6.9526937e-04 0.0000000e+00 
9.7141602e-06 -6.9528200e-04 0.0000000e+00 
-9.8122386e-06 -7.0391516e-04 0.0000000e+00 
-3.3047905e-06 -7.0395255e-04 0.0000000e+00 
3.2034974e-06 -7.0397756e-04 0.0000000e+00 
9.7120000e-06 -7.0399017e-04 0.0000000e+00 
-9.6733046e-06 -7.1256075e-04 0.0000000e+00 
-3.2128298e-06 -7.1259800e-04 0.0000000e+00 
3.2485738e-06 -7.1262297e-04 0.0000000e+00 
9.7103103e-06 -7.1263572e-04 0.0000000e+00 
-9.5355292e-06 -7.2114431e-04 0.0000000e+00 
-3.1214690e-06 -7.2118129e-04 0.0000000e+00 
3.2935196e-06 -7.2120615e-04 0.0000000e+00 
9.7088289e-06 -7.2121887e-04 0.0000000e+00 
-9.3987914e-06 -7.2966623e-04 0.0000000e+00 
-3.0307982e-06 -7.2970300e-04 0.0000000e+00 
3.3382313e-06 -7.2972772e-04 0.0000000e+00 
9.7076924e-06 -7.2974048e-04 0.0000000e+00 
-9.2632740e-06 -7.3812726e-04 0.0000000e+00 
-2.9408625e-06 -7.3816373e-04 0.0000000e+00 
3.3826795e-06 -7.3818831e-04 0.0000000e+00 
9.7067195e-06 -7.3820102e-04 0.0000000e+00 
-9.1291236e-06 -7.4652793e-04 0.0000000e+00 
-2.8517266e-06 -7.4656410e-04 0.0000000e+00 
3.4268076e-06 -7.4658850e-04 0.0000000e+00 
9.7058231e-06 -7.4660117e-04 0.0000000e+00 
-8.9962722e-06 -7.5486896e-04 0.0000000e+00 
-2.7634753e-06 -7.5490476e-04 0.0000000e+00 
3.4705591e-06 -7.5492895e-04 0.0000000e+00 
9.7051307e-06 -7.5494154e-04 0.0000000e+00 
-8.8649429e-06 -7.6315088e-04 0.0000000e+00 
-2.6761364e-06 -7.6318635e-04 0.0000000e+00 
3.5139397e-06 -7.6321033e-04 0.0000000e+00 
9.7045206e-06 -7.6322288e-04 0.0000000e+00 
-8.7351213e-06 -7.7137460e-04 0.0000000e+00 
-2.5897790e-06 -7.7140963e-04 0.0000000e+00 
3.5569009e-06 -7.7143337e-04 0.0000000e+00 
9.7041417e-06 -7.7144579e-04 0.0000000e+00 
-8.6069521e-06 -7.7954068e-04 0.0000000e+00 
-2.5044353e-06 -7.7957536e-04 0.0000000e+00 
3.5994514e-06 -7.7959887e-04 0.0000000e+00 
9.7038733e-06 -7.7961126e-04 0.0000000e+00 
-8.4804308e-06 -7.8765017e-04 0.0000000e+00 
-2.4201642e-06 -7.8768438e-04 0.0000000e+00 
3.6415632e-06 -7.8770761e-04 0.0000000e+00 
9.7038414e-06 -7.8771985e-04 0.0000000e+00 
-8.3557588e-06 -7.9570373e-04 0.0000000e+00 
-2.3369932e-06 -7.9573755e-04 0.0000000e+00 
3.6832406e-06 -7.9576054e-04 0.0000000e+00 
9.7040176e-06 -7.9577276e-04 0.0000000e+00 
-8.2328940e-06 -8.0370260e-04 0.0000000e+00 
-2.2549975e-06 -8.0373586e-04 0.0000000e+00 
3.7244538e-06 -8.0375853e-04 0.0000000e+00 
9.7045056e-06 -8.0377059e-04 0.0000000e+00 
-8.1120250e-06 -8.1164731e-04 0.0000000e+00 
-2.1742008e-06 -8.1168016e-04 0.0000000e+00 
3.7652114e-06 -8.1170257e-04 0.0000000e+00 
9.7051811e-06 -8.1171462e-04 0.0000000e+00 
-7.9931634e-06 -8.1953929e-04 0.0000000e+00 
-2.0946588e-06 -8.1957152e-04 0.0000000e+00 
3.8054719e-06 -8.1959358e-04 0.0000000e+00 
9.7061757e-06 -8.1960541e-04 0.0000000e+00 
-7.8763934e-06 -8.2737915e-04 0.0000000e+00 
-2.0163981e-06 -8.2741096e-04 0.0000000e+00 
3.8452440e-06 -8.2743274e-04 0.0000000e+00 
9.7074569e-06 -8.2744456e-04 0.0000000e+00 
-7.7617089e-06 -8.3516841e-04 0.0000000e+00 
-1.9394488e-06 -8.3519960e-04 0.0000000e+00 
3.8845296e-06 -8.3522104e-04 0.0000000e+00 
9.7090851e-06 -8.3523266e-04 0.0000000e+00 
-7.6492710e-06 -8.4290779e-04 0.0000000e+00 
-1.8638182e-06 -8.4293853e-04 0.0000000e+00 
3.9233316e-06 -8.4295970e-04 0.0000000e+00 
9.7110500e-06 -8.4297132e-04 0.0000000e+00 
-7.5390446e-06 -8.5059894e-04 0.0000000e+00 
-1.7895515e-06 -8.5062901e-04 0.0000000e+00 
3.9616309e-06 -8.5064975e-04 0.0000000e+00 
9.7133841e-06 -8.5066118e-04 0.0000000e+00 
-7.4310615e-06 -8.5824270e-04 0.0000000e+00 
-1.7167639e-06 -8.5827207e-04 0.0000000e+00 
3.9993330e-06 -8.5829238e-04 0.0000000e+00 
9.7160298e-06 -8.5830357e-04 0.0000000e+00 
-7.3254660e-06 -8.6583989e-04 0.0000000e+00 
-1.6453927e-06 -8.6586880e-04 0.0000000e+00 
4.0365110e-06 -8.6588881e-04 0.0000000e+00 
9.7190140e-06 -8.6590002e-04 0.0000000e+00 
-7.2222715e-06 -8.7339236e-04 0.0000000e+00 
-1.5754697e-06 -8.7342054e-04 0.0000000e+00 
4.0731726e-06 -8.7344016e-04 0.0000000e+00 
9.7224138e-06 -8.7345116e-04 0.0000000e+00 
-7.1214901e-06 -8.8090073e-04 0.0000000e+00 
-1.5070274e-06 -8.8092842e-04 0.0000000e+00 
4.1093267e-06 -8.8094773e-04 0.0000000e+00 
9.7262360e-06 -8.8095875e-04 0.0000000e+00 
-7.0231837e-06 -8.8836686e-04 0.0000000e+00 
-1.4400893e-06 -8.8839382e-04 0.0000000e+00 
4.1449614e-06 -8.8841274e-04 0.0000000e+00 
9.7306019e-06 -8.8842355e-04 0.0000000e+00 
-6.9274924e-06 -8.9579162e-04 0.0000000e+00 
-1.3746802e-06 -8.9581807e-04 0.0000000e+00 
4.1800957e-06 -8.9583667e-04 0.0000000e+00 
9.7354391e-06 -8.9584752e-04 0.0000000e+00 