# vtk DataFile Version 4.0
vtk output
ASCII
DATASET UNSTRUCTURED_GRID
POINTS 604 float
5.5000000e+00 5.9700000e+00 0.0000000e+00 
5.5000000e+00 5.9900000e+00 0.0000000e+00 
5.5266667e+00 5.9700000e+00 0.0000000e+00 
5.5266667e+00 5.9900000e+00 0.0000000e+00 
5.5000000e+00 6.0100000e+00 0.0000000e+00 
5.5266667e+00 6.0100000e+00 0.0000000e+00 
5.5533333e+00 5.9700000e+00 0.0000000e+00 
5.5533333e+00 5.9900000e+00 0.0000000e+00 
5.5000000e+00 6.0300000e+00 0.0000000e+00 
5.5266667e+00 6.0300000e+00 0.0000000e+00 
5.5533333e+00 6.0100000e+00 0.0000000e+00 
5.5800000e+00 5.9700000e+00 0.0000000e+00 
5.5533333e+00 6.0300000e+00 0.0000000e+00 
5.5800000e+00 5.9900000e+00 0.0000000e+00 
5.5800000e+00 6.0100000e+00 0.0000000e+00 
5.5800000e+00 6.0300000e+00 0.0000000e+00 
5.6066667e+00 5.9700000e+00 0.0000000e+00 
5.6066667e+00 5.9900000e+00 0.0000000e+00 
5.6066667e+00 6.0100000e+00 0.0000000e+00 
5.6066667e+00 6.0300000e+00 0.0000000e+00 
5.6333333e+00 5.9700000e+00 0.0000000e+00 
5.6333333e+00 5.9900000e+00 0.0000000e+00 
5.6333333e+00 6.0100000e+00 0.0000000e+00 
5.6333333e+00 6.0300000e+00 0.0000000e+00 
5.6600000e+00 5.9700000e+00 0.0000000e+00 
5.6600000e+00 5.9900000e+00 0.0000000e+00 
5.6600000e+00 6.0100000e+00 0.0000000e+00 
5.6600000e+00 6.0300000e+00 0.0000000e+00 
5.6866667e+00 5.9700000e+00 0.0000000e+00 
5.6866667e+00 5.9900000e+00 0.0000000e+00 
5.6866667e+00 6.0100000e+00 0.0000000e+00 
5.6866667e+00 6.0300000e+00 0.0000000e+00 
5.7133333e+00 5.9700000e+00 0.0000000e+00 
5.7133333e+00 5.9900000e+00 0.0000000e+00 
5.7133333e+00 6.0100000e+00 0.0000000e+00 
5.7133333e+00 6.0300000e+00 0.0000000e+00 
5.7400000e+00 5.9700000e+00 0.0000000e+00 
5.7400000e+00 5.9900000e+00 0.0000000e+00 
5.7400000e+00 6.0100000e+00 0.0000000e+00 
5.7400000e+00 6.0300000e+00 0.0000000e+00 
5.7666667e+00 5.9700000e+00 0.0000000e+00 
5.7666667e+00 5.9900000e+00 0.0000000e+00 
5.7666667e+00 6.0100000e+00 0.0000000e+00 
5.7666667e+00 6.0300000e+00 0.0000000e+00 
5.7933333e+00 5.9700000e+00 0.0000000e+00 
5.7933333e+00 5.9900000e+00 0.0000000e+00 
5.7933333e+00 6.0100000e+00 0.0000000e+00 
5.7933333e+00 6.0300000e+00 0.0000000e+00 
5.8200000e+00 5.9700000e+00 0.0000000e+00 
5.8200000e+00 5.9900000e+00 0.0000000e+00 
5.8200000e+00 6.0100000e+00 0.0000000e+00 
5.8200000e+00 6.0300000e+00 0.0000000e+00 
5.8466667e+00 5.9700000e+00 0.0000000e+00 
5.8466667e+00 5.9900000e+00 0.0000000e+00 
5.8466667e+00 6.0100000e+00 0.0000000e+00 
5.8466667e+00 6.0300000e+00 0.0000000e+00 
5.8733333e+00 5.9700000e+00 0.0000000e+00 
5.8733333e+00 5.9900000e+00 0.0000000e+00 
5.8733333e+00 6.0100000e+00 0.0000000e+00 
5.8733333e+00 6.0300000e+00 0.0000000e+00 
5.9000000e+00 5.9700000e+00 0.0000000e+00 
5.9000000e+00 5.9900000e+00 0.0000000e+00 
5.9000000e+00 6.0100000e+00 0.0000000e+00 
5.9000000e+00 6.0300000e+00 0.0000000e+00 
5.9266667e+00 5.9700000e+00 0.0000000e+00 
5.9266667e+00 5.9900000e+00 0.0000000e+00 
5.9266667e+00 6.0100000e+00 0.0000000e+00 
5.9266667e+00 6.0300000e+00 0.0000000e+00 
5.9533333e+00 5.9700000e+00 0.0000000e+00 
5.9533333e+00 5.9900000e+00 0.0000000e+00 
5.9533333e+00 6.0100000e+00 0.0000000e+00 
5.9533333e+00 6.0300000e+00 0.0000000e+00 
5.9800000e+00 5.9700000e+00 0.0000000e+00 
5.9800000e+00 5.9900000e+00 0.0000000e+00 
5.9800000e+00 6.0100000e+00 0.0000000e+00 
5.9800000e+00 6.0300000e+00 0.0000000e+00 
6.0066667e+00 5.9700000e+00 0.0000000e+00 
6.0066667e+00 5.9900000e+00 0.0000000e+00 
6.0066667e+00 6.0100000e+00 0.0000000e+00 
6.0066667e+00 6.0300000e+00 0.0000000e+00 
6.0333333e+00 5.9700000e+00 0.0000000e+00 
6.0333333e+00 5.9900000e+00 0.0000000e+00 
6.0333333e+00 6.0100000e+00 0.0000000e+00 
6.0333333e+00 6.0300000e+00 0.0000000e+00 
6.0600000e+00 5.9700000e+00 0.0000000e+00 
6.0600000e+00 5.9900000e+00 0.0000000e+00 
6.0600000e+00 6.0100000e+00 0.0000000e+00 
6.0600000e+00 6.0300000e+00 0.0000000e+00 
6.0866667e+00 5.9700000e+00 0.0000000e+00 
6.0866667e+00 5.9900000e+00 0.0000000e+00 
6.0866667e+00 6.0100000e+00 0.0000000e+00 
6.0866667e+00 6.0300000e+00 0.0000000e+00 
6.1133333e+00 5.9700000e+00 0.0000000e+00 
6.1133333e+00 5.9900000e+00 0.0000000e+00 
6.1133333e+00 6.0100000e+00 0.0000000e+00 
6.1133333e+00 6.0300000e+00 0.0000000e+00 
6.1400000e+00 5.9700000e+00 0.0000000e+00 
6.1400000e+00 5.9900000e+00 0.0000000e+00 
6.1400000e+00 6.0100000e+00 0.0000000e+00 
6.1400000e+00 6.0300000e+00 0.0000000e+00 
6.1666667e+00 5.9700000e+00 0.0000000e+00 
6.1666667e+00 5.9900000e+00 0.0000000e+00 
6.1666667e+00 6.0100000e+00 0.0000000e+00 
6.1666667e+00 6.0300000e+00 0.0000000e+00 
6.1933333e+00 5.9700000e+00 0.0000000e+00 
6.1933333e+00 5.9900000e+00 0.0000000e+00 
6.1933333e+00 6.0100000e+00 0.0000000e+00 
6.1933333e+00 6.0300000e+00 0.0000000e+00 
6.2200000e+00 5.9700000e+00 0.0000000e+00 
6.2200000e+00 5.9900000e+00 0.0000000e+00 
6.2200000e+00 6.0100000e+00 0.0000000e+00 
6.2200000e+00 6.0300000e+00 0.0000000e+00 
6.2466667e+00 5.9700000e+00 0.0000000e+00 
6.2466667e+00 5.9900000e+00 0.0000000e+00 
6.2466667e+00 6.0100000e+00 0.0000000e+00 
6.2466667e+00 6.0300000e+00 0.0000000e+00 
6.2733333e+00 5.9700000e+00 0.0000000e+00 
6.2733333e+00 5.9900000e+00 0.0000000e+00 
6.2733333e+00 6.0100000e+00 0.0000000e+00 
6.2733333e+00 6.0300000e+00 0.0000000e+00 
6.3000000e+00 5.9700000e+00 0.0000000e+00 
6.3000000e+00 5.9900000e+00 0.0000000e+00 
6.3000000e+00 6.0100000e+00 0.0000000e+00 
6.3000000e+00 6.0300000e+00 0.0000000e+00 
6.3266667e+00 5.9700000e+00 0.0000000e+00 
6.3266667e+00 5.9900000e+00 0.0000000e+00 
6.3266667e+00 6.0100000e+00 0.0000000e+00 
6.3266667e+00 6.0300000e+00 0.0000000e+00 
6.3533333e+00 5.9700000e+00 0.0000000e+00 
6.3533333e+00 5.9900000e+00 0.0000000e+00 
6.3533333e+00 6.0100000e+00 0.0000000e+00 
6.3533333e+00 6.0300000e+00 0.0000000e+00 
6.3800000e+00 5.9700000e+00 0.0000000e+00 
6.3800000e+00 5.9900000e+00 0.0000000e+00 
6.3800000e+00 6.0100000e+00 0.0000000e+00 
6.3800000e+00 6.0300000e+00 0.0000000e+00 
6.4066667e+00 5.9700000e+00 0.0000000e+00 
6.4066667e+00 5.9900000e+00 0.0000000e+00 
6.4066667e+00 6.0100000e+00 0.0000000e+00 
6.4066667e+00 6.0300000e+00 0.0000000e+00 
6.4333333e+00 5.9700000e+00 0.0000000e+00 
6.4333333e+00 5.9900000e+00 0.0000000e+00 
6.4333333e+00 6.0100000e+00 0.0000000e+00 
6.4333333e+00 6.0300000e+00 0.0000000e+00 
6.4600000e+00 5.9700000e+00 0.0000000e+00 
6.4600000e+00 5.9900000e+00 0.0000000e+00 
6.4600000e+00 6.0100000e+00 0.0000000e+00 
6.4600000e+00 6.0300000e+00 0.0000000e+00 
6.4866667e+00 5.9700000e+00 0.0000000e+00 
6.4866667e+00 5.9900000e+00 0.0000000e+00 
6.4866667e+00 6.0100000e+00 0.0000000e+00 
6.4866667e+00 6.0300000e+00 0.0000000e+00 
6.5133333e+00 5.9700000e+00 0.0000000e+00 
6.5133333e+00 5.9900000e+00 0.0000000e+00 
6.5133333e+00 6.0100000e+00 0.0000000e+00 
6.5133333e+00 6.0300000e+00 0.0000000e+00 
6.5400000e+00 5.9700000e+00 0.0000000e+00 
6.5400000e+00 5.9900000e+00 0.0000000e+00 
6.5400000e+00 6.0100000e+00 0.0000000e+00 
6.5400000e+00 6.0300000e+00 0.0000000e+00 
6.5666667e+00 5.9700000e+00 0.0000000e+00 
6.5666667e+00 5.9900000e+00 0.0000000e+00 
6.5666667e+00 6.0100000e+00 0.0000000e+00 
6.5666667e+00 6.0300000e+00 0.0000000e+00 
6.5933333e+00 5.9700000e+00 0.0000000e+00 
6.5933333e+00 5.9900000e+00 0.0000000e+00 
6.5933333e+00 6.0100000e+00 0.0000000e+00 
6.5933333e+00 6.0300000e+00 0.0000000e+00 
6.6200000e+00 5.9700000e+00 0.0000000e+00 
6.6200000e+00 5.9900000e+00 0.0000000e+00 
6.6200000e+00 6.0100000e+00 0.0000000e+00 
6.6200000e+00 6.0300000e+00 0.0000000e+00 
6.6466667e+00 5.9700000e+00 0.0000000e+00 
6.6466667e+00 5.9900000e+00 0.0000000e+00 
6.6466667e+00 6.0100000e+00 0.0000000e+00 
6.6466667e+00 6.0300000e+00 0.0000000e+00 
6.6733333e+00 5.9700000e+00 0.0000000e+00 
6.6733333e+00 5.9900000e+00 0.0000000e+00 
6.6733333e+00 6.0100000e+00 0.0000000e+00 
6.6733333e+00 6.0300000e+00 0.0000000e+00 
6.7000000e+00 5.9700000e+00 0.0000000e+00 
6.7000000e+00 5.9900000e+00 0.0000000e+00 
6.7000000e+00 6.0100000e+00 0.0000000e+00 
6.7000000e+00 6.0300000e+00 0.0000000e+00 
6.7266667e+00 5.9700000e+00 0.0000000e+00 
6.7266667e+00 5.9900000e+00 0.0000000e+00 
6.7266667e+00 6.0100000e+00 0.0000000e+00 
6.7266667e+00 6.0300000e+00 0.0000000e+00 
6.7533333e+00 5.9700000e+00 0.0000000e+00 
6.7533333e+00 5.9900000e+00 0.0000000e+00 
6.7533333e+00 6.0100000e+00 0.0000000e+00 
6.7533333e+00 6.0300000e+00 0.0000000e+00 
6.7800000e+00 5.9700000e+00 0.0000000e+00 
6.7800000e+00 5.9900000e+00 0.0000000e+00 
6.7800000e+00 6.0100000e+00 0.0000000e+00 
6.7800000e+00 6.0300000e+00 0.0000000e+00 
6.8066667e+00 5.9700000e+00 0.0000000e+00 
6.8066667e+00 5.9900000e+00 0.0000000e+00 
6.8066667e+00 6.0100000e+00 0.0000000e+00 
6.8066667e+00 6.0300000e+00 0.0000000e+00 
6.8333333e+00 5.9700000e+00 0.0000000e+00 
6.8333333e+00 5.9900000e+00 0.0000000e+00 
6.8333333e+00 6.0100000e+00 0.0000000e+00 
6.8333333e+00 6.0300000e+00 0.0000000e+00 
6.8600000e+00 5.9700000e+00 0.0000000e+00 
6.8600000e+00 5.9900000e+00 0.0000000e+00 
6.8600000e+00 6.0100000e+00 0.0000000e+00 
6.8600000e+00 6.0300000e+00 0.0000000e+00 
6.8866667e+00 5.9700000e+00 0.0000000e+00 
6.8866667e+00 5.9900000e+00 0.0000000e+00 
6.8866667e+00 6.0100000e+00 0.0000000e+00 
6.8866667e+00 6.0300000e+00 0.0000000e+00 
6.9133333e+00 5.9700000e+00 0.0000000e+00 
6.9133333e+00 5.9900000e+00 0.0000000e+00 
6.9133333e+00 6.0100000e+00 0.0000000e+00 
6.9133333e+00 6.0300000e+00 0.0000000e+00 
6.9400000e+00 5.9700000e+00 0.0000000e+00 
6.9400000e+00 5.9900000e+00 0.0000000e+00 
6.9400000e+00 6.0100000e+00 0.0000000e+00 
6.9400000e+00 6.0300000e+00 0.0000000e+00 
6.9666667e+00 5.9700000e+00 0.0000000e+00 
6.9666667e+00 5.9900000e+00 0.0000000e+00 
6.9666667e+00 6.0100000e+00 0.0000000e+00 
6.9666667e+00 6.0300000e+00 0.0000000e+00 
6.9933333e+00 5.9700000e+00 0.0000000e+00 
6.9933333e+00 5.9900000e+00 0.0000000e+00 
6.9933333e+00 6.0100000e+00 0.0000000e+00 
6.9933333e+00 6.0300000e+00 0.0000000e+00 
7.0200000e+00 5.9700000e+00 0.0000000e+00 
7.0200000e+00 5.9900000e+00 0.0000000e+00 
[...]
POINT_DATA 604
FIELD FieldData 2
DISPLACEMENT 3 604  float
0.0000000e+00 0.0000000e+00 0.0000000e+00 
0.0000000e+00 0.0000000e+00 0.0000000e+00 
-1.3604609e-04 -7.9384927e-05 0.0000000e+00 
-4.3805321e-05 -5.0954069e-05 0.0000000e+00 
0.0000000e+00 0.0000000e+00 0.0000000e+00 
4.2878651e-05 -5.1219926e-05 0.0000000e+00 
-2.7690491e-04 -2.5822354e-04 0.0000000e+00 
-9.3452687e-05 -2.3515633e-04 0.0000000e+00 
0.0000000e+00 0.0000000e+00 0.0000000e+00 
1.3495259e-04 -8.0087637e-05 0.0000000e+00 
9.0496782e-05 -2.3610838e-04 0.0000000e+00 
-4.1878483e-04 -5.6409684e-04 0.0000000e+00 
2.7352655e-04 -2.6094213e-04 0.0000000e+00 
-1.4179397e-04 -5.4161662e-04 0.0000000e+00 
1.3455554e-04 -5.4362667e-04 0.0000000e+00 
4.1086411e-04 -5.6999898e-04 0.0000000e+00 
-5.6183434e-04 -9.9279314e-04 0.0000000e+00 
-1.9205199e-04 -9.7194709e-04 0.0000000e+00 
1.7708779e-04 -9.7545034e-04 0.0000000e+00 
5.4596780e-04 -1.0031849e-03 0.0000000e+00 
-7.0670604e-04 -1.5443374e-03 0.0000000e+00 
-2.4439293e-04 -1.5254903e-03 0.0000000e+00 
2.1714536e-04 -1.5309127e-03 0.0000000e+00 
6.7833655e-04 -1.5604879e-03 0.0000000e+00 
-8.5392121e-04 -2.2182686e-03 0.0000000e+00 
-2.9941293e-04 -2.2018494e-03 0.0000000e+00 
2.5420221e-04 -2.2096087e-03 0.0000000e+00 
8.0737004e-04 -2.2414332e-03 0.0000000e+00 
-1.0040100e-03 -3.0141477e-03 0.0000000e+00 
-3.5765391e-04 -3.0005732e-03 0.0000000e+00 
2.8769102e-04 -3.0110825e-03 0.0000000e+00 
9.3249080e-04 -3.0455658e-03 0.0000000e+00 
-1.1574950e-03 -3.9315086e-03 0.0000000e+00 
-4.1965558e-04 -3.9211915e-03 0.0000000e+00 
3.1705617e-04 -3.9348587e-03 0.0000000e+00 
1.0531263e-03 -3.9724043e-03 0.0000000e+00 
-1.3148919e-03 -4.9698648e-03 0.0000000e+00 
-4.8595023e-04 -4.9632118e-03 0.0000000e+00 
3.4174877e-04 -4.9804394e-03 0.0000000e+00 
1.1687112e-03 -5.0214456e-03 0.0000000e+00 
-1.4767089e-03 -6.1287072e-03 0.0000000e+00 
-5.5706268e-04 -6.1261197e-03 0.0000000e+00 
3.6122756e-04 -6.1473044e-03 0.0000000e+00 
1.2786876e-03 -6.1921637e-03 0.0000000e+00 
-1.6434468e-03 -7.4075060e-03 0.0000000e+00 
-6.3351007e-04 -7.4093790e-03 0.0000000e+00 
3.7495892e-04 -7.4349116e-03 0.0000000e+00 
1.3825061e-03 -7.4840107e-03 0.0000000e+00 
-1.8155982e-03 -8.8057093e-03 0.0000000e+00 
-7.1580141e-04 -8.8124318e-03 0.0000000e+00 
3.8241764e-04 -8.8426969e-03 0.0000000e+00 
1.4796244e-03 -8.8964161e-03 0.0000000e+00 
-1.9936474e-03 -1.0322745e-02 0.0000000e+00 
-8.0443736e-04 -1.0334699e-02 0.0000000e+00 
3.8308688e-04 -1.0370074e-02 0.0000000e+00 
1.5695102e-03 -1.0428788e-02 0.0000000e+00 
-2.1780707e-03 -1.1958017e-02 0.0000000e+00 
-8.9990990e-04 -1.1975579e-02 0.0000000e+00 
3.7645890e-04 -1.2016436e-02 0.0000000e+00 
1.6516396e-03 -1.2080511e-02 0.0000000e+00 
-2.3693354e-03 -1.3710913e-02 0.0000000e+00 
-1.0027021e-03 -1.3734451e-02 0.0000000e+00 
3.6203499e-04 -1.3781155e-02 0.0000000e+00 
1.7254987e-03 -1.3850951e-02 0.0000000e+00 
-2.5678997e-03 -1.5580797e-02 0.0000000e+00 
-1.1132877e-03 -1.5610672e-02 0.0000000e+00 
3.3932600e-04 -1.5663580e-02 0.0000000e+00 
1.7905828e-03 -1.5739452e-02 0.0000000e+00 
-2.7742129e-03 -1.7567014e-02 0.0000000e+00 
-1.2321310e-03 -1.7603581e-02 0.0000000e+00 
3.0785262e-04 -1.7663042e-02 0.0000000e+00 
1.8463973e-03 -1.7745336e-02 0.0000000e+00 
-2.9887145e-03 -1.9668890e-02 0.0000000e+00 
-1.3596864e-03 -1.9712494e-02 0.0000000e+00 
2.6714552e-04 -1.9778852e-02 0.0000000e+00 
1.8924586e-03 -1.9867905e-02 0.0000000e+00 
-3.2118345e-03 -2.1885729e-02 0.0000000e+00 
-1.4963984e-03 -2.1936710e-02 0.0000000e+00 
2.1674577e-04 -2.2010299e-02 0.0000000e+00 
1.9282929e-03 -2.2106444e-02 0.0000000e+00 
-3.4439928e-03 -2.4216821e-02 0.0000000e+00 
-1.6427013e-03 -2.4275509e-02 0.0000000e+00 
1.5620511e-04 -2.4356655e-02 0.0000000e+00 
1.9534377e-03 -2.4460215e-02 0.0000000e+00 
-3.6855998e-03 -2.6661433e-02 0.0000000e+00 
-1.7990188e-03 -2.6728150e-02 0.0000000e+00 
8.5085981e-05 -2.6817174e-02 0.0000000e+00 
1.9674426e-03 -2.6928464e-02 0.0000000e+00 
-3.9370549e-03 -2.9218817e-02 0.0000000e+00 
-1.9657640e-03 -2.9293878e-02 0.0000000e+00 
2.9617793e-06 -2.9391089e-02 0.0000000e+00 
1.9698673e-03 -2.9510417e-02 0.0000000e+00 
-4.1987465e-03 -3.1888206e-02 0.0000000e+00 
-2.1433389e-03 -3.1971918e-02 0.0000000e+00 
-9.0582979e-05 -3.2077618e-02 0.0000000e+00 
1.9602826e-03 -3.2205282e-02 0.0000000e+00 
-4.4710523e-03 -3.4668817e-02 0.0000000e+00 
-2.3321346e-03 -3.4761475e-02 0.0000000e+00 
-1.9595276e-04 -3.4875960e-02 0.0000000e+00 
1.9382716e-03 -3.5012249e-02 0.0000000e+00 
-4.7543381e-03 -3.7559847e-02 0.0000000e+00 
-2.5325303e-03 -3.7661741e-02 0.0000000e+00 
-3.1354011e-04 -3.7785294e-02 0.0000000e+00 
1.9034268e-03 -3.7930492e-02 0.0000000e+00 
-5.0489590e-03 -4.0560477e-02 0.0000000e+00 
-2.7448940e-03 -4.0671886e-02 0.0000000e+00 
-4.4372603e-04 -4.0804784e-02 0.0000000e+00 
1.8553553e-03 -4.0959163e-02 0.0000000e+00 
-5.3552584e-03 -4.3669871e-02 0.0000000e+00 
-2.9695820e-03 -4.3791067e-02 0.0000000e+00 
-5.8687924e-04 -4.3933577e-02 0.0000000e+00 
1.7936755e-03 -4.4097401e-02 0.0000000e+00 
-5.6735683e-03 -4.6887178e-02 0.0000000e+00 
-3.2069384e-03 -4.7018421e-02 0.0000000e+00 
-7.4335642e-04 -4.7170801e-02 0.0000000e+00 
1.7180187e-03 -4.7344325e-02 0.0000000e+00 
-6.0042085e-03 -5.0211527e-02 0.0000000e+00 
-3.4572954e-03 -5.0353070e-02 0.0000000e+00 
-9.1350188e-04 -5.0515570e-02 0.0000000e+00 
1.6280280e-03 -5.0699040e-02 0.0000000e+00 
-6.3474872e-03 -5.3642035e-02 0.0000000e+00 
-3.7209729e-03 -5.3794120e-02 0.0000000e+00 
-1.0976476e-03 -5.3966979e-02 0.0000000e+00 
1.5233600e-03 -5.4160632e-02 0.0000000e+00 
-6.7037001e-03 -5.7177802e-02 0.0000000e+00 
-3.9982787e-03 -5.7340663e-02 0.0000000e+00 
-1.2961129e-03 -5.7524111e-02 0.0000000e+00 
1.4036834e-03 -5.7728174e-02 0.0000000e+00 
-7.0731305e-03 -6.0817911e-02 0.0000000e+00 
-4.2895077e-03 -6.0991772e-02 0.0000000e+00 
-1.5092044e-03 -6.1186031e-02 0.0000000e+00 
1.2686798e-03 -6.1400721e-02 0.0000000e+00 
-7.4560495e-03 -6.4561433e-02 0.0000000e+00 
-4.5949422e-03 -6.4746508e-02 0.0000000e+00 
-1.7372158e-03 -6.4951788e-02 0.0000000e+00 
1.1180445e-03 -6.5177314e-02 0.0000000e+00 
-7.8527155e-03 -6.8407421e-02 0.0000000e+00 
-4.9148520e-03 -6.8603915e-02 0.0000000e+00 
-1.9804281e-03 -6.8820418e-02 0.0000000e+00 
9.5148519e-04 -6.9056978e-02 0.0000000e+00 
-8.2633744e-03 -7.2354916e-02 0.0000000e+00 
-5.2494938e-03 -7.2563022e-02 0.0000000e+00 
-2.2391084e-03 -7.2790940e-02 0.0000000e+00 
7.6872314e-04 -7.3038724e-02 0.0000000e+00 
-8.6882602e-03 -7.6402943e-02 0.0000000e+00 
-5.5991115e-03 -7.6622847e-02 0.0000000e+00 
-2.5135114e-03 -7.6862361e-02 0.0000000e+00 
5.6949512e-04 -7.7121548e-02 0.0000000e+00 
-9.1275933e-03 -8.0550514e-02 0.0000000e+00 
-5.9639360e-03 -8.0782391e-02 0.0000000e+00 
-2.8038783e-03 -8.1033674e-02 0.0000000e+00 
3.5354893e-04 -8.1304434e-02 0.0000000e+00 
-9.5815805e-03 -8.4796628e-02 0.0000000e+00 
-6.3441851e-03 -8.5040643e-02 0.0000000e+00 
-3.1104372e-03 -8.5303857e-02 0.0000000e+00 
1.2064555e-04 -8.5586348e-02 0.0000000e+00 
-1.0050416e-02 -8.9140271e-02 0.0000000e+00 
-6.7400629e-03 -8.9396578e-02 0.0000000e+00 
-3.4334034e-03 -8.9671875e-02 0.0000000e+00 
-1.2943958e-04 -8.9966247e-02 0.0000000e+00 
-1.0534278e-02 -9.3580411e-02 0.0000000e+00 
-7.1517602e-03 -9.3849155e-02 0.0000000e+00 
-3.7729780e-03 -9.4136677e-02 0.0000000e+00 
-3.9692067e-04 -9.4443070e-02 0.0000000e+00 
-1.1033335e-02 -9.8116006e-02 0.0000000e+00 
-7.5794540e-03 -9.8397321e-02 0.0000000e+00 
-4.1293488e-03 -9.8697199e-02 0.0000000e+00 
-6.8199487e-04 -9.9015741e-02 0.0000000e+00 
-1.1547739e-02 -1.0274600e-01 0.0000000e+00 
-8.0233079e-03 -1.0304001e-01 0.0000000e+00 
-4.5026896e-03 -1.0335236e-01 0.0000000e+00 
-9.8484640e-04 -1.0368317e-01 0.0000000e+00 
-1.2077631e-02 -1.0746931e-01 0.0000000e+00 
-8.4834718e-03 -1.0777613e-01 0.0000000e+00 
-4.8931604e-03 -1.0810108e-01 0.0000000e+00 
-1.3056451e-03 -1.0844426e-01 0.0000000e+00 
-1.2623136e-02 -1.1228487e-01 0.0000000e+00 
-8.9600817e-03 -1.1260460e-01 0.0000000e+00 
-5.3009073e-03 -1.1294224e-01 0.0000000e+00 
-1.6445474e-03 -1.1329790e-01 0.0000000e+00 
-1.3184366e-02 -1.1719157e-01 0.0000000e+00 
-9.4532600e-03 -1.1752431e-01 0.0000000e+00 
-5.7260624e-03 -1.1787472e-01 0.0000000e+00 
-2.0016952e-03 -1.1824294e-01 0.0000000e+00 
-1.3761420e-02 -1.2218830e-01 0.0000000e+00 
-9.9631150e-03 -1.2253413e-01 0.0000000e+00 
-6.1687444e-03 -1.2289740e-01 0.0000000e+00 
-2.3772168e-03 -1.2327826e-01 0.0000000e+00 
-1.4354383e-02 -1.2727395e-01 0.0000000e+00 
-1.0489741e-02 -1.2763293e-01 0.0000000e+00 
-6.6290572e-03 -1.2800913e-01 0.0000000e+00 
-2.7712265e-03 -1.2840269e-01 0.0000000e+00 
-1.4963325e-02 -1.3244736e-01 0.0000000e+00 
-1.1033219e-02 -1.3281956e-01 0.0000000e+00 
-7.1070911e-03 -1.3320875e-01 0.0000000e+00 
-3.1838240e-03 -1.3361507e-01 0.0000000e+00 
-1.5588303e-02 -1.3770739e-01 0.0000000e+00 
-1.1593615e-02 -1.3809287e-01 0.0000000e+00 
-7.6029223e-03 -1.3849509e-01 0.0000000e+00 
-3.6150953e-03 -1.3891422e-01 0.0000000e+00 
-1.6229360e-02 -1.4305288e-01 0.0000000e+00 
-1.2170980e-02 -1.4345167e-01 0.0000000e+00 
-8.1166125e-03 -1.4386697e-01 0.0000000e+00 
-4.0651118e-03 -1.4429894e-01 0.0000000e+00 
-1.6886523e-02 -1.4848266e-01 0.0000000e+00 
-1.2765355e-02 -1.4889479e-01 0.0000000e+00 
-8.6482095e-03 -1.4932318e-01 0.0000000e+00 
-4.5339309e-03 -1.4976802e-01 0.0000000e+00 
-1.7559809e-02 -1.5399553e-01 0.0000000e+00 
-1.3376761e-02 -1.5442101e-01 0.0000000e+00 
-9.1977463e-03 -1.5486252e-01 0.0000000e+00 
-5.0215957e-03 -1.5532024e-01 0.0000000e+00 
-1.8249219e-02 -1.5959029e-01 0.0000000e+00 
-1.4005211e-02 -1.6002914e-01 0.0000000e+00 
-9.7652422e-03 -1.6048377e-01 0.0000000e+00 
-5.5281317e-03 -1.6095438e-01 0.0000000e+00 
-1.8954741e-02 -1.6526573e-01 0.0000000e+00 
-1.4650700e-02 -1.6571795e-01 0.0000000e+00 
-1.0350702e-02 -1.6618570e-01 0.0000000e+00 
-6.0535540e-03 -1.6666918e-01 0.0000000e+00 
-1.9676348e-02 -1.7102064e-01 0.0000000e+00 
-1.5313211e-02 -1.7148621e-01 0.0000000e+00 
-1.0954118e-02 -1.7196706e-01 0.0000000e+00 
-6.5978627e-03 -1.7246340e-01 0.0000000e+00 
-2.0414000e-02 -1.7685377e-01 0.0000000e+00 
-1.5992712e-02 -1.7733267e-01 0.0000000e+00 
-1.1575467e-02 -1.7782659e-01 0.0000000e+00 
-7.1610433e-03 -1.7833577e-01 0.0000000e+00 
-2.1167641e-02 -1.8276387e-01 0.0000000e+00 
-1.6689158e-02 -1.8325607e-01 0.0000000e+00 
-1.2214712e-02 -1.8376303e-01 0.0000000e+00 
-7.7430711e-03 -1.8428500e-01 0.0000000e+00 
-2.1937203e-02 -1.8874969e-01 0.0000000e+00 
-1.7402488e-02 -1.8925514e-01 0.0000000e+00 
-1.2871803e-02 -1.8977510e-01 0.0000000e+00 
-8.3439028e-03 -1.9030981e-01 0.0000000e+00 
-2.2722603e-02 -1.9480996e-01 0.0000000e+00 
-1.8132629e-02 -1.9532860e-01 0.0000000e+00 
-1.3546674e-02 -1.9586150e-01 0.0000000e+00 
-8.9634816e-03 -1.9640889e-01 0.0000000e+00 
-2.3523747e-02 -2.0094339e-01 0.0000000e+00 
-1.8879494e-02 -2.0147516e-01 0.0000000e+00 
-1.4239246e-02 -2.0202092e-01 0.0000000e+00 
-9.6017365e-03 -2.0258093e-01 0.0000000e+00 
-2.4340525e-02 -2.0714869e-01 0.0000000e+00 
-1.9642981e-02 -2.0769351e-01 0.0000000e+00 
-1.4949426e-02 -2.0825207e-01 0.0000000e+00 
-1.0258582e-02 -2.0882461e-01 0.0000000e+00 
-2.5172816e-02 -2.1342454e-01 0.0000000e+00 
-2.0422977e-02 -2.1398234e-01 0.0000000e+00 
-1.5677107e-02 -2.1455360e-01 0.0000000e+00 
-1.0933919e-02 -2.1513859e-01 0.0000000e+00 
-2.6020485e-02 -2.1976965e-01 0.0000000e+00 
-2.1219353e-02 -2.2034032e-01 0.0000000e+00 
-1.6422169e-02 -2.2092418e-01 0.0000000e+00 
-1.1627634e-02 -2.2152152e-01 0.0000000e+00 
-2.6883386e-02 -2.2618269e-01 0.0000000e+00 
-2.2031970e-02 -2.2676612e-01 0.0000000e+00 
-1.7184477e-02 -2.2736248e-01 0.0000000e+00 
-1.2339600e-02 -2.2797206e-01 0.0000000e+00 
-2.7761358e-02 -2.3266232e-01 0.0000000e+00 
-2.2860675e-02 -2.3325840e-01 0.0000000e+00 
-1.7963886e-02 -2.3386715e-01 0.0000000e+00 
-1.3069677e-02 -2.3448884e-01 0.0000000e+00 
-2.8654234e-02 -2.3920720e-01 0.0000000e+00 
-2.3705302e-02 -2.3981581e-01 0.0000000e+00 
-1.8760233e-02 -2.4043681e-01 0.0000000e+00 
-1.3817708e-02 -2.4107049e-01 0.0000000e+00 
-2.9561830e-02 -2.4581599e-01 0.0000000e+00 
-2.4565674e-02 -2.4643699e-01 0.0000000e+00 
-1.9573349e-02 -2.4707011e-01 0.0000000e+00 
-1.4583527e-02 -2.4771564e-01 0.0000000e+00 
-3.0483951e-02 -2.5248734e-01 0.0000000e+00 
-2.5441601e-02 -2.5312059e-01 0.0000000e+00 
-2.0403047e-02 -2.5376568e-01 0.0000000e+00 
-1.5366952e-02 -2.5442292e-01 0.0000000e+00 
-3.1420394e-02 -2.5921987e-01 0.0000000e+00 
-2.6332884e-02 -2.5986522e-01 0.0000000e+00 
-2.1249131e-02 -2.6052213e-01 0.0000000e+00 
-1.6167793e-02 -2.6119093e-01 0.0000000e+00 
-3.2370939e-02 -2.6601224e-01 0.0000000e+00 
-2.7239308e-02 -2.6666952e-01 0.0000000e+00 
-2.2111394e-02 -2.6733809e-01 0.0000000e+00 
-1.6985847e-02 -2.6801827e-01 0.0000000e+00 
-3.3335360e-02 -2.7286306e-01 0.0000000e+00 
-2.8160651e-02 -2.7353210e-01 0.0000000e+00 
-2.2989615e-02 -2.7421216e-01 0.0000000e+00 
-1.7820899e-02 -2.7490356e-01 0.0000000e+00 
-3.4313419e-02 -2.7977095e-01 0.0000000e+00 
-2.9096678e-02 -2.8045158e-01 0.0000000e+00 
-2.3883563e-02 -2.8114295e-01 0.0000000e+00 
-1.8672718e-02 -2.8184539e-01 0.0000000e+00 
-3.5304871e-02 -2.8673454e-01 0.0000000e+00 
-3.0047144e-02 -2.8742657e-01 0.0000000e+00 
-2.4792995e-02 -2.8812906e-01 0.0000000e+00 
-1.9541065e-02 -2.8884236e-01 0.0000000e+00 
-3.6309460e-02 -2.9375244e-01 0.0000000e+00 
-3.1011796e-02 -2.9445568e-01 0.0000000e+00 
-2.5717658e-02 -2.9516910e-01 0.0000000e+00 
-2.0425687e-02 -2.9589306e-01 0.0000000e+00 
-3.7326923e-02 -3.0082326e-01 0.0000000e+00 
-3.1990370e-02 -3.0153751e-01 0.0000000e+00 
-2.6657291e-02 -3.0226166e-01 0.0000000e+00 
-2.1326324e-02 -3.0299608e-01 0.0000000e+00 
-3.8356986e-02 -3.0794562e-01 0.0000000e+00 
-3.2982593e-02 -3.0867066e-01 0.0000000e+00 
-2.7611619e-02 -3.0940534e-01 0.0000000e+00 
-2.2242702e-02 -3.1015001e-01 0.0000000e+00 
-3.9399372e-02 -3.1511812e-01 0.0000000e+00 
-3.3988186e-02 -3.1585376e-01 0.0000000e+00 
-2.8580361e-02 -3.1659875e-01 0.0000000e+00 
-2.3174538e-02 -3.1735345e-01 0.0000000e+00 
-4.0453796e-02 -3.2233939e-01 0.0000000e+00 
-3.5006862e-02 -3.2308540e-01 0.0000000e+00 
-2.9563229e-02 -3.2384048e-01 0.0000000e+00 
-2.4121540e-02 -3.2460500e-01 0.0000000e+00 
-4.1519968e-02 -3.2960805e-01 0.0000000e+00 
-3.6038326e-02 -3.3036419e-01 0.0000000e+00 
-3.0559923e-02 -3.3112914e-01 0.0000000e+00 
-2.5083408e-02 -3.3190326e-01 0.0000000e+00 
-4.2597592e-02 -3.3692271e-01 0.0000000e+00 
-3.7082279e-02 -3.3768876e-01 0.0000000e+00 
-3.1570141e-02 -3.3846335e-01 0.0000000e+00 
-2.6059833e-02 -3.3924684e-01 0.0000000e+00 
-4.3686365e-02 -3.4428200e-01 0.0000000e+00 
-3.8138413e-02 -3.4505773e-01 0.0000000e+00 
-3.2593570e-02 -3.4584173e-01 0.0000000e+00 
-2.7050499e-02 -3.4663435e-01 0.0000000e+00 
-4.4785985e-02 -3.5168456e-01 0.0000000e+00 
-3.9206418e-02 -3.5246973e-01 0.0000000e+00 
-3.3629894e-02 -3.5326290e-01 0.0000000e+00 
-2.8055083e-02 -3.5406443e-01 0.0000000e+00 
-4.5896143e-02 -3.5912904e-01 0.0000000e+00 
-4.0285979e-02 -3.5992340e-01 0.0000000e+00 
-3.4678789e-02 -3.6072549e-01 0.0000000e+00 
-2.9073255e-02 -3.6153569e-01 0.0000000e+00 
-4.7016530e-02 -3.6661408e-01 0.0000000e+00 
-4.1376778e-02 -3.6741739e-01 0.0000000e+00 
-3.5739931e-02 -3.6822817e-01 0.0000000e+00 
-3.0104681e-02 -3.6904679e-01 0.0000000e+00 
-4.8146830e-02 -3.7413835e-01 0.0000000e+00 
-4.2478491e-02 -3.7495036e-01 0.0000000e+00 
-3.6812987e-02 -3.7576958e-01 0.0000000e+00 
-3.1149020e-02 -3.7659638e-01 0.0000000e+00 
-4.9286729e-02 -3.8170052e-01 0.0000000e+00 
-4.3590795e-02 -3.8252099e-01 0.0000000e+00 
-3.7897625e-02 -3.8334840e-01 0.0000000e+00 
-3.2205931e-02 -3.8418313e-01 0.0000000e+00 
-5.0435907e-02 -3.8929928e-01 0.0000000e+00 
-4.4713361e-02 -3.9012795e-01 0.0000000e+00 
-3.8993506e-02 -3.9096330e-01 0.0000000e+00 
-3.3275069e-02 -3.9180572e-01 0.0000000e+00 
-5.1594045e-02 -3.9693333e-01 0.0000000e+00 
-4.5845860e-02 -3.9776994e-01 0.0000000e+00 
-4.0100293e-02 -3.9861299e-01 0.0000000e+00 
-3.4356084e-02 -3.9946285e-01 0.0000000e+00 
-5.2760825e-02 -4.0460138e-01 0.0000000e+00 
-4.6987961e-02 -4.0544568e-01 0.0000000e+00 
-4.1217642e-02 -4.0629617e-01 0.0000000e+00 
-3.5448623e-02 -4.0715321e-01 0.0000000e+00 
-5.3935930e-02 -4.1230215e-01 0.0000000e+00 
-4.8139336e-02 -4.1315388e-01 0.0000000e+00 
-4.2345212e-02 -4.1401156e-01 0.0000000e+00 
-3.6552330e-02 -4.1487555e-01 0.0000000e+00 
-5.5119042e-02 -4.2003439e-01 0.0000000e+00 
-4.9299653e-02 -4.2089330e-01 0.0000000e+00 
-4.3482658e-02 -4.2175791e-01 0.0000000e+00 
-3.7666850e-02 -4.2262859e-01 0.0000000e+00 
-5.6309847e-02 -4.2779685e-01 0.0000000e+00 
-5.0468584e-02 -4.2866269e-01 0.0000000e+00 
-4.4629638e-02 -4.2953399e-01 0.0000000e+00 
-3.8791823e-02 -4.3041111e-01 0.0000000e+00 
-5.7508036e-02 -4.3558833e-01 0.0000000e+00 
-5.1645801e-02 -4.3646083e-01 0.0000000e+00 
-4.5785810e-02 -4.3733857e-01 0.0000000e+00 
-3.9926893e-02 -4.3822189e-01 0.0000000e+00 
-5.8713299e-02 -4.4340761e-01 0.0000000e+00 
-5.2830982e-02 -4.4428653e-01 0.0000000e+00 
-4.6950833e-02 -4.4517045e-01 0.0000000e+00 
-4.1071704e-02 -4.4605973e-01 0.0000000e+00 
-5.9925333e-02 -4.5125352e-01 0.0000000e+00 
-5.4023805e-02 -4.5213861e-01 0.0000000e+00 
-4.8124368e-02 -4.5302848e-01 0.0000000e+00 
-4.2225900e-02 -4.5392347e-01 0.0000000e+00 
-6.1143840e-02 -4.5912491e-01 0.0000000e+00 
-5.5223953e-02 -4.6001592e-01 0.0000000e+00 
-4.9306082e-02 -4.6091148e-01 0.0000000e+00 
-4.3389127e-02 -4.6181195e-01 0.0000000e+00 
-6.2368524e-02 -4.6702064e-01 0.0000000e+00 
-5.6431113e-02 -4.6791732e-01 0.0000000e+00 
-5.0495641e-02 -4.6881835e-01 0.0000000e+00 
-4.4561037e-02 -4.6972406e-01 0.0000000e+00 
-6.3599097e-02 -4.7493962e-01 0.0000000e+00 
-5.7644976e-02 -4.7584173e-01 0.0000000e+00 
-5.1692720e-02 -4.7674798e-01 0.0000000e+00 
-4.5741282e-02 -4.7765870e-01 0.0000000e+00 
-6.4835275e-02 -4.8288075e-01 0.0000000e+00 
-5.8865238e-02 -4.8378806e-01 0.0000000e+00 
-5.2896995e-02 -4.8469930e-01 0.0000000e+00 
-4.6929522e-02 -4.8561480e-01 0.0000000e+00 
-6.6076773e-02 -4.9084298e-01 0.0000000e+00 
-6.0091600e-02 -4.9175525e-01 0.0000000e+00 
-5.4108148e-02 -4.9267126e-01 0.0000000e+00 
-4.8125419e-02 -4.9359131e-01 0.0000000e+00 
-6.7323319e-02 -4.9882529e-01 0.0000000e+00 
-6.1323767e-02 -4.9974228e-01 0.0000000e+00 
-5.5325865e-02 -5.0066282e-01 0.0000000e+00 
-4.9328641e-02 -5.0158722e-01 0.0000000e+00 
-6.8574646e-02 -5.0682665e-01 0.0000000e+00 
-6.2561453e-02 -5.0774815e-01 0.0000000e+00 
-5.6549839e-02 -5.0867301e-01 0.0000000e+00 
-5.0538858e-02 -5.0960152e-01 0.0000000e+00 
-6.9830496e-02 -5.1484611e-01 0.0000000e+00 
-6.3804377e-02 -5.1577189e-01 0.0000000e+00 
-5.7779767e-02 -5.1670084e-01 0.0000000e+00 
-5.1755749e-02 -5.1763327e-01 0.0000000e+00 
-7.1090615e-02 -5.2288269e-01 0.0000000e+00 
-6.5052265e-02 -5.2381254e-01 0.0000000e+00 
-5.9015355e-02 -5.2474539e-01 0.0000000e+00 
-5.2978996e-02 -5.2568152e-01 0.0000000e+00 
-7.2354760e-02 -5.3093549e-01 0.0000000e+00 
-6.6304850e-02 -5.3186919e-01 0.0000000e+00 
-6.0256314e-02 -5.3280573e-01 0.0000000e+00 
-5.4208290e-02 -5.3374536e-01 0.0000000e+00 
-7.3622693e-02 -5.3900361e-01 0.0000000e+00 
-6.7561874e-02 -5.3994096e-01 0.0000000e+00 
-6.1502363e-02 -5.4088098e-01 0.0000000e+00 
-5.5443327e-02 -5.4182394e-01 0.0000000e+00 
-7.4894186e-02 -5.4708619e-01 0.0000000e+00 
-6.8823086e-02 -5.4802699e-01 0.0000000e+00 
-6.2753228e-02 -5.4897031e-01 0.0000000e+00 
-5.6683812e-02 -5.4991638e-01 0.0000000e+00 
-7.6169018e-02 -5.5518240e-01 0.0000000e+00 
-7.0088243e-02 -5.5612646e-01 0.0000000e+00 
-6.4008646e-02 -5.5707287e-01 0.0000000e+00 
-5.7929456e-02 -5.5802189e-01 0.0000000e+00 
-7.7446978e-02 -5.6329143e-01 0.0000000e+00 
-7.1357109e-02 -5.6423855e-01 0.0000000e+00 
-6.5268357e-02 -5.6518789e-01 0.0000000e+00 
-5.9179981e-02 -5.6613968e-01 0.0000000e+00 
-7.8727861e-02 -5.7141250e-01 0.0000000e+00 
-7.2629460e-02 -5.7236251e-01 0.0000000e+00 
-6.6532114e-02 -5.7331460e-01 0.0000000e+00 
-6.0435115e-02 -5.7426900e-01 0.0000000e+00 