# vtk DataFile Version 4.0
vtk output
ASCII
DATASET UNSTRUCTURED_GRID
POINTS 604 float
5.5000000e+00 5.9700000e+00 0.0000000e+00 
5.5000000e+00 5.9900000e+00 0.0000000e+00 
5.5266667e+00 5.9700000e+00 0.0000000e+00 
5.5266667e+00 5.9900000e+00 0.0000000e+00 
5.5000000e+00 6.0100000e+00 0.0000000e+00 
5.5266667e+00 6.0100000e+00 0.0000000e+00 
5.5533333e+00 5.9700000e+00 0.0000000e+00 
5.5533333e+00 5.9900000e+00 0.0000000e+00 
5.5000000e+00 6.0300000e+00 0.0000000e+00 
5.5266667e+00 6.0300000e+00 0.0000000e+00 
5.5533333e+00 6.0100000e+00 0.0000000e+00 
5.5800000e+00 5.9700000e+00 0.0000000e+00 
5.5533333e+00 6.0300000e+00 0.0000000e+00 
5.5800000e+00 5.9900000e+00 0.0000000e+00 
5.5800000e+00 6.0100000e+00 0.0000000e+00 
5.5800000e+00 6.0300000e+00 0.0000000e+00 
5.6066667e+00 5.9700000e+00 0.0000000e+00 
5.6066667e+00 5.9900000e+00 0.0000000e+00 
5.6066667e+00 6.0100000e+00 0.0000000e+00 
5.6066667e+00 6.0300000e+00 0.0000000e+00 
5.6333333e+00 5.9700000e+00 0.0000000e+00 
5.6333333e+00 5.9900000e+00 0.0000000e+00 
5.6333333e+00 6.0100000e+00 0.0000000e+00 
5.6333333e+00 6.0300000e+00 0.0000000e+00 
5.6600000e+00 5.9700000e+00 0.0000000e+00 
5.6600000e+00 5.9900000e+00 0.0000000e+00 
5.6600000e+00 6.0100000e+00 0.0000000e+00 
5.6600000e+00 6.0300000e+00 0.0000000e+00 
5.6866667e+00 5.9700000e+00 0.0000000e+00 
5.6866667e+00 5.9900000e+00 0.0000000e+00 
5.6866667e+00 6.0100000e+00 0.0000000e+00 
5.6866667e+00 6.0300000e+00 0.0000000e+00 
5.7133333e+00 5.9700000e+00 0.0000000e+00 
5.7133333e+00 5.9900000e+00 0.0000000e+00 
5.7133333e+00 6.0100000e+00 0.0000000e+00 
5.7133333e+00 6.0300000e+00 0.0000000e+00 
5.7400000e+00 5.9700000e+00 0.0000000e+00 
5.7400000e+00 5.9900000e+00 0.0000000e+00 
5.7400000e+00 6.0100000e+00 0.0000000e+00 
5.7400000e+00 6.0300000e+00 0.0000000e+00 
5.7666667e+00 5.9700000e+00 0.0000000e+00 
5.7666667e+00 5.9900000e+00 0.0000000e+00 
5.7666667e+00 6.0100000e+00 0.0000000e+00 
5.7666667e+00 6.0300000e+00 0.0000000e+00 
5.7933333e+00 5.9700000e+00 0.0000000e+00 
5.7933333e+00 5.9900000e+00 0.0000000e+00 
5.7933333e+00 6.0100000e+00 0.0000000e+00 
5.7933333e+00 6.0300000e+00 0.0000000e+00 
5.8200000e+00 5.9700000e+00 0.0000000e+00 
5.8200000e+00 5.9900000e+00 0.0000000e+00 
5.8200000e+00 6.0100000e+00 0.0000000e+00 
5.8200000e+00 6.0300000e+00 0.0000000e+00 
5.8466667e+00 5.9700000e+00 0.0000000e+00 
5.8466667e+00 5.9900000e+00 0.0000000e+00 
5.8466667e+00 6.0100000e+00 0.0000000e+00 
5.8466667e+00 6.0300000e+00 0.0000000e+00 
5.8733333e+00 5.9700000e+00 0.0000000e+00 
5.8733333e+00 5.9900000e+00 0.0000000e+00 
5.8733333e+00 6.0100000e+00 0.0000000e+00 
5.8733333e+00 6.0300000e+00 0.0000000e+00 
5.9000000e+00 5.9700000e+00 0.0000000e+00 
5.9000000e+00 5.9900000e+00 0.0000000e+00 
5.9000000e+00 6.0100000e+00 0.0000000e+00 
5.9000000e+00 6.0300000e+00 0.0000000e+00 
5.9266667e+00 5.9700000e+00 0.0000000e+00 
5.9266667e+00 5.9900000e+00 0.0000000e+00 
5.9266667e+00 6.0100000e+00 0.0000000e+00 
5.9266667e+00 6.0300000e+00 0.0000000e+00 
5.9533333e+00 5.9700000e+00 0.0000000e+00 
5.9533333e+00 5.9900000e+00 0.0000000e+00 
5.9533333e+00 6.0100000e+00 0.0000000e+00 
5.9533333e+00 6.0300000e+00 0.0000000e+00 
5.9800000e+00 5.9700000e+00 0.0000000e+00 
5.9800000e+00 5.9900000e+00 0.0000000e+00 
5.9800000e+00 6.0100000e+00 0.0000000e+00 
5.9800000e+00 6.0300000e+00 0.0000000e+00 
6.0066667e+00 5.9700000e+00 0.0000000e+00 
6.0066667e+00 5.9900000e+00 0.0000000e+00 
6.0066667e+00 6.0100000e+00 0.0000000e+00 
6.0066667e+00 6.0300000e+00 0.0000000e+00 
6.0333333e+00 5.9700000e+00 0.0000000e+00 
6.0333333e+00 5.9900000e+00 0.0000000e+00 
6.0333333e+00 6.0100000e+00 0.0000000e+00 
6.0333333e+00 6.0300000e+00 0.0000000e+00 
6.0600000e+00 5.9700000e+00 0.0000000e+00 
6.0600000e+00 5.9900000e+00 0.0000000e+00 
6.0600000e+00 6.0100000e+00 0.0000000e+00 
6.0600000e+00 6.0300000e+00 0.0000000e+00 
6.0866667e+00 5.9700000e+00 0.0000000e+00 
6.0866667e+00 5.9900000e+00 0.0000000e+00 
6.0866667e+00 6.0100000e+00 0.0000000e+00 
6.0866667e+00 6.0300000e+00 0.0000000e+00 
6.1133333e+00 5.9700000e+00 0.0000000e+00 
6.1133333e+00 5.9900000e+00 0.0000000e+00 
6.1133333e+00 6.0100000e+00 0.0000000e+00 
6.1133333e+00 6.0300000e+00 0.0000000e+00 
6.1400000e+00 5.9700000e+00 0.0000000e+00 
6.1400000e+00 5.9900000e+00 0.0000000e+00 
6.1400000e+00 6.0100000e+00 0.0000000e+00 
6.1400000e+00 6.0300000e+00 0.0000000e+00 
6.1666667e+00 5.9700000e+00 0.0000000e+00 
6.1666667e+00 5.9900000e+00 0.0000000e+00 
6.1666667e+00 6.0100000e+00 0.0000000e+00 
6.1666667e+00 6.0300000e+00 0.0000000e+00 
6.1933333e+00 5.9700000e+00 0.0000000e+00 
6.1933333e+00 5.9900000e+00 0.0000000e+00 
6.1933333e+00 6.0100000e+00 0.0000000e+00 
6.1933333e+00 6.0300000e+00 0.0000000e+00 
6.2200000e+00 5.9700000e+00 0.0000000e+00 
6.2200000e+00 5.9900000e+00 0.0000000e+00 
6.2200000e+00 6.0100000e+00 0.0000000e+00 
6.2200000e+00 6.0300000e+00 0.0000000e+00 
6.2466667e+00 5.9700000e+00 0.0000000e+00 
6.2466667e+00 5.9900000e+00 0.0000000e+00 
6.2466667e+00 6.0100000e+00 0.0000000e+00 
6.2466667e+00 6.0300000e+00 0.0000000e+00 
6.2733333e+00 5.9700000e+00 0.0000000e+00 
6.2733333e+00 5.9900000e+00 0.0000000e+00 
6.2733333e+00 6.0100000e+00 0.0000000e+00 
6.2733333e+00 6.0300000e+00 0.0000000e+00 
6.3000000e+00 5.9700000e+00 0.0000000e+00 
6.3000000e+00 5.9900000e+00 0.0000000e+00 
6.3000000e+00 6.0100000e+00 0.0000000e+00 
6.3000000e+00 6.0300000e+00 0.0000000e+00 
6.3266667e+00 5.9700000e+00 0.0000000e+00 
6.3266667e+00 5.9900000e+00 0.0000000e+00 
6.3266667e+00 6.0100000e+00 0.0000000e+00 
6.3266667e+00 6.0300000e+00 0.0000000e+00 
6.3533333e+00 5.9700000e+00 0.0000000e+00 
6.3533333e+00 5.9900000e+00 0.0000000e+00 
6.3533333e+00 6.0100000e+00 0.0000000e+00 
6.3533333e+00 6.0300000e+00 0.0000000e+00 
6.3800000e+00 5.9700000e+00 0.0000000e+00 
6.3800000e+00 5.9900000e+00 0.0000000e+00 
6.3800000e+00 6.0100000e+00 0.0000000e+00 
6.3800000e+00 6.0300000e+00 0.0000000e+00 
6.4066667e+00 5.9700000e+00 0.0000000e+00 
6.4066667e+00 5.9900000e+00 0.0000000e+00 
6.4066667e+00 6.0100000e+00 0.0000000e+00 
6.4066667e+00 6.0300000e+00 0.0000000e+00 
6.4333333e+00 5.9700000e+00 0.0000000e+00 
6.4333333e+00 5.9900000e+00 0.0000000e+00 
6.4333333e+00 6.0100000e+00 0.0000000e+00 
6.4333333e+00 6.0300000e+00 0.0000000e+00 
6.4600000e+00 5.9700000e+00 0.0000000e+00 
6.4600000e+00 5.9900000e+00 0.0000000e+00 
6.4600000e+00 6.0100000e+00 0.0000000e+00 
6.4600000e+00 6.0300000e+00 0.0000000e+00 
6.4866667e+00 5.9700000e+00 0.0000000e+00 
6.4866667e+00 5.9900000e+00 0.0000000e+00 
6.4866667e+00 6.0100000e+00 0.0000000e+00 
6.4866667e+00 6.0300000e+00 0.0000000e+00 
6.5133333e+00 5.9700000e+00 0.0000000e+00 
6.5133333e+00 5.9900000e+00 0.0000000e+00 
6.5133333e+00 6.0100000e+00 0.0000000e+00 
6.5133333e+00 6.0300000e+00 0.0000000e+00 
6.5400000e+00 5.9700000e+00 0.0000000e+00 
6.5400000e+00 5.9900000e+00 0.0000000e+00 
6.5400000e+00 6.0100000e+00 0.0000000e+00 
6.5400000e+00 6.0300000e+00 0.0000000e+00 
6.5666667e+00 5.9700000e+00 0.0000000e+00 
6.5666667e+00 5.9900000e+00 0.0000000e+00 
6.5666667e+00 6.0100000e+00 0.0000000e+00 
6.5666667e+00 6.0300000e+00 0.0000000e+00 
6.5933333e+00 5.9700000e+00 0.0000000e+00 
6.5933333e+00 5.9900000e+00 0.0000000e+00 
6.5933333e+00 6.0100000e+00 0.0000000e+00 
6.5933333e+00 6.0300000e+00 0.0000000e+00 
6.6200000e+00 5.9700000e+00 0.0000000e+00 
6.6200000e+00 5.9900000e+00 0.0000000e+00 
6.6200000e+00 6.0100000e+00 0.0000000e+00 
6.6200000e+00 6.0300000e+00 0.0000000e+00 
6.6466667e+00 5.9700000e+00 0.0000000e+00 
6.6466667e+00 5.9900000e+00 0.0000000e+00 
6.6466667e+00 6.0100000e+00 0.0000000e+00 
6.6466667e+00 6.0300000e+00 0.0000000e+00 
6.6733333e+00 5.9700000e+00 0.0000000e+00 
6.6733333e+00 5.9900000e+00 0.0000000e+00 
6.6733333e+00 6.0100000e+00 0.0000000e+00 
6.6733333e+00 6.0300000e+00 0.0000000e+00 
6.7000000e+00 5.9700000e+00 0.0000000e+00 
6.7000000e+00 5.9900000e+00 0.0000000e+00 
6.7000000e+00 6.0100000e+00 0.0000000e+00 
6.7000000e+00 6.0300000e+00 0.0000000e+00 
6.7266667e+00 5.9700000e+00 0.0000000e+00 
6.7266667e+00 5.9900000e+00 0.0000000e+00 
6.7266667e+00 6.0100000e+00 0.0000000e+00 
6.7266667e+00 6.0300000e+00 0.0000000e+00 
6.7533333e+00 5.9700000e+00 0.0000000e+00 
6.7533333e+00 5.9900000e+00 0.0000000e+00 
6.7533333e+00 6.0100000e+00 0.0000000e+00 
6.7533333e+00 6.0300000e+00 0.0000000e+00 
6.7800000e+00 5.9700000e+00 0.0000000e+00 
6.7800000e+00 5.9900000e+00 0.0000000e+00 
6.7800000e+00 6.0100000e+00 0.0000000e+00 
6.7800000e+00 6.0300000e+00 0.0000000e+00 
6.8066667e+00 5.9700000e+00 0.0000000e+00 
6.8066667e+00 5.9900000e+00 0.0000000e+00 
6.8066667e+00 6.0100000e+00 0.0000000e+00 
6.8066667e+00 6.0300000e+00 0.0000000e+00 
6.8333333e+00 5.9700000e+00 0.0000000e+00 
6.8333333e+00 5.9900000e+00 0.0000000e+00 
6.8333333e+00 6.0100000e+00 0.0000000e+00 
6.8333333e+00 6.0300000e+00 0.0000000e+00 
6.8600000e+00 5.9700000e+00 0.0000000e+00 
6.8600000e+00 5.9900000e+00 0.0000000e+00 
6.8600000e+00 6.0100000e+00 0.0000000e+00 
6.8600000e+00 6.0300000e+00 0.0000000e+00 
6.8866667e+00 5.9700000e+00 0.0000000e+00 
6.8866667e+00 5.9900000e+00 0.0000000e+00 
6.8866667e+00 6.0100000e+00 0.0000000e+00 
6.8866667e+00 6.0300000e+00 0.0000000e+00 
6.9133333e+00 5.9700000e+00 0.0000000e+00 
6.9133333e+00 5.9900000e+00 0.0000000e+00 
6.9133333e+00 6.0100000e+00 0.0000000e+00 
6.9133333e+00 6.0300000e+00 0.0000000e+00 
6.9400000e+00 5.9700000e+00 0.0000000e+00 
6.9400000e+00 5.9900000e+00 0.0000000e+00 
6.9400000e+00 6.0100000e+00 0.0000000e+00 
6.9400000e+00 6.0300000e+00 0.0000000e+00 
6.9666667e+00 5.9700000e+00 0.0000000e+00 
6.9666667e+00 5.9900000e+00 0.0000000e+00 
6.9666667e+00 6.0100000e+00 0.0000000e+00 
6.9666667e+00 6.0300000e+00 0.0000000e+00 
6.9933333e+00 5.9700000e+00 0.0000000e+00 
6.9933333e+00 5.9900000e+00 0.0000000e+00 
6.9933333e+00 6.0100000e+00 0.0000000e+00 
6.9933333e+00 6.0300000e+00 0.0000000e+00 
7.0200000e+00 5.9700000e+00 0.0000000e+00 
7.0200000e+00 5.9900000e+00 0.0000000e+00 
[...]
POINT_DATA 604
FIELD FieldData 2
DISPLACEMENT 3 604  float
0.0000000e+00 0.0000000e+00 0.0000000e+00 
0.0000000e+00 0.0000000e+00 0.0000000e+00 
-7.9073103e-05 -4.4671283e-05 0.0000000e+00 
-2.5358070e-05 -2.7921651e-05 0.0000000e+00 
0.0000000e+00 0.0000000e+00 0.0000000e+00 
2.5924108e-05 -2.8117793e-05 0.0000000e+00 
-1.6263754e-04 -1.4882922e-04 0.0000000e+00 
-5.4285130e-05 -1.3477838e-04 0.0000000e+00 
0.0000000e+00 0.0000000e+00 0.0000000e+00 
7.9662856e-05 -4.5256911e-05 0.0000000e+00 
5.5134010e-05 -1.3523947e-04 0.0000000e+00 
-2.4815197e-04 -3.2987570e-04 0.0000000e+00 
1.6335441e-04 -1.5013585e-04 0.0000000e+00 
-8.2749784e-05 -3.1565004e-04 0.0000000e+00 
8.3055321e-05 -3.1649022e-04 0.0000000e+00 
2.4821298e-04 -3.3233736e-04 0.0000000e+00 
-3.3557639e-04 -5.8676148e-04 0.0000000e+00 
-1.1250002e-04 -5.7289885e-04 0.0000000e+00 
1.1098393e-04 -5.7429990e-04 0.0000000e+00 
3.3372709e-04 -5.9090239e-04 0.0000000e+00 
-4.2516250e-04 -9.2088746e-04 0.0000000e+00 
-1.4352118e-04 -9.0753936e-04 0.0000000e+00 
1.3845206e-04 -9.0968101e-04 0.0000000e+00 
4.1966617e-04 -9.2724548e-04 0.0000000e+00 
-5.1709515e-04 -1.3333426e-03 0.0000000e+00 
-1.7606516e-04 -1.3207061e-03 0.0000000e+00 
1.6522661e-04 -1.3237734e-03 0.0000000e+00 
5.0573014e-04 -1.3424734e-03 0.0000000e+00 
-6.1157763e-04 -1.8251963e-03 0.0000000e+00 
-2.1036498e-04 -1.8134717e-03 0.0000000e+00 
1.9103689e-04 -1.8176565e-03 0.0000000e+00 
5.9162013e-04 -1.8376757e-03 0.0000000e+00 
-7.0882151e-04 -2.3974731e-03 0.0000000e+00 
-2.4666505e-04 -2.3868674e-03 0.0000000e+00 
2.1560647e-04 -2.3923677e-03 0.0000000e+00 
6.7702743e-04 -2.4138960e-03 0.0000000e+00 
-8.0904668e-04 -3.0511548e-03 0.0000000e+00 
-2.8521788e-04 -3.0418809e-03 0.0000000e+00 
2.3865025e-04 -3.0489013e-03 0.0000000e+00 
7.6163479e-04 -3.0721347e-03 0.0000000e+00 
-9.1248095e-04 -3.7871802e-03 0.0000000e+00 
-3.2628397e-04 -3.7794572e-03 0.0000000e+00 
2.5987522e-04 -3.7882078e-03 0.0000000e+00 
8.4511582e-04 -3.8133480e-03 0.0000000e+00 
-1.0193594e-03 -4.6064452e-03 0.0000000e+00 
-3.7013132e-04 -4.6004974e-03 0.0000000e+00 
2.7898033e-04 -4.6111939e-03 0.0000000e+00 
9.2713829e-04 -4.6384479e-03 0.0000000e+00 
-1.1299241e-03 -5.5098020e-03 0.0000000e+00 
-4.1703501e-04 -5.5058591e-03 0.0000000e+00 
2.9565784e-04 -5.5187224e-03 0.0000000e+00 
1.0073593e-03 -5.5483026e-03 0.0000000e+00 
-1.2444237e-03 -6.4980598e-03 0.0000000e+00 
-4.6727669e-04 -6.4963560e-03 0.0000000e+00 
3.0959298e-04 -6.5116115e-03 0.0000000e+00 
1.0854330e-03 -6.5437351e-03 0.0000000e+00 
-1.3631134e-03 -7.5719840e-03 0.0000000e+00 
-5.2114428e-04 -7.5727582e-03 0.0000000e+00 
3.2046527e-04 -7.5906361e-03 0.0000000e+00 
1.1610051e-03 -7.6255247e-03 0.0000000e+00 
-1.4862536e-03 -8.7322975e-03 0.0000000e+00 
-5.7893132e-04 -8.7357925e-03 0.0000000e+00 
3.2794827e-04 -8.7565266e-03 0.0000000e+00 
1.2337176e-03 -8.7944058e-03 0.0000000e+00 
-1.6141104e-03 -9.9796795e-03 0.0000000e+00 
-6.4093662e-04 -9.9861418e-03 0.0000000e+00 
3.3171043e-04 -1.0009970e-02 0.0000000e+00 
1.3032058e-03 -1.0051069e-02 0.0000000e+00 
-1.7469544e-03 -1.1314766e-02 0.0000000e+00 
-7.0746358e-04 -1.1324446e-02 0.0000000e+00 
3.3141568e-04 -1.1351609e-02 0.0000000e+00 
1.3691003e-03 -1.1396161e-02 0.0000000e+00 
-1.8850604e-03 -1.2738151e-02 0.0000000e+00 
-7.7881988e-04 -1.2751300e-02 0.0000000e+00 
3.2672356e-04 -1.2782044e-02 0.0000000e+00 
1.4310293e-03 -1.2830284e-02 0.0000000e+00 
-2.0287073e-03 -1.4250384e-02 0.0000000e+00 
-8.5531682e-04 -1.4267259e-02 0.0000000e+00 
3.1729039e-04 -1.4301828e-02 0.0000000e+00 
1.4886154e-03 -1.4353995e-02 0.0000000e+00 
-2.1781772e-03 -1.5851973e-02 0.0000000e+00 
-9.3726895e-04 -1.5872831e-02 0.0000000e+00 
3.0276964e-04 -1.5911475e-02 0.0000000e+00 
1.5414798e-03 -1.5967809e-02 0.0000000e+00 
-2.3337558e-03 -1.7543384e-02 0.0000000e+00 
-1.0249935e-03 -1.7568483e-02 0.0000000e+00 
2.8281207e-04 -1.7611453e-02 0.0000000e+00 
1.5892436e-03 -1.7672197e-02 0.0000000e+00 
-2.4957305e-03 -1.9325041e-02 0.0000000e+00 
-1.1188100e-03 -1.9354643e-02 0.0000000e+00 
2.5706649e-04 -1.9402190e-02 0.0000000e+00 
1.6315234e-03 -1.9467588e-02 0.0000000e+00 
-2.6643899e-03 -2.1197327e-02 0.0000000e+00 
-1.2190395e-03 -2.1231693e-02 0.0000000e+00 
2.2517989e-04 -2.1284071e-02 0.0000000e+00 
1.6679335e-03 -2.1354366e-02 0.0000000e+00 
-2.8400237e-03 -2.3160581e-02 0.0000000e+00 
-1.3260039e-03 -2.3199973e-02 0.0000000e+00 
1.8679750e-04 -2.3257435e-02 0.0000000e+00 
1.6980892e-03 -2.3332874e-02 0.0000000e+00 
-3.0229218e-03 -2.5215101e-02 0.0000000e+00 
-1.4400257e-03 -2.5259782e-02 0.0000000e+00 
1.4156480e-04 -2.5322581e-02 0.0000000e+00 
1.7215994e-03 -2.5403409e-02 0.0000000e+00 
-3.2133743e-03 -2.7361142e-02 0.0000000e+00 
-1.5614274e-03 -2.7411372e-02 0.0000000e+00 
8.9126907e-05 -2.7479763e-02 0.0000000e+00 
1.7380795e-03 -2.7566223e-02 0.0000000e+00 
-3.4116709e-03 -2.9598915e-02 0.0000000e+00 
-1.6905306e-03 -2.9654957e-02 0.0000000e+00 
2.9130383e-05 -2.9729190e-02 0.0000000e+00 
1.7471436e-03 -2.9821529e-02 0.0000000e+00 
-3.6181006e-03 -3.1928592e-02 0.0000000e+00 
-1.8276560e-03 -3.1990705e-02 0.0000000e+00 
-3.8777077e-05 -3.2071033e-02 0.0000000e+00 
1.7484088e-03 -3.2169492e-02 0.0000000e+00 
-3.8329506e-03 -3.4350302e-02 0.0000000e+00 
-1.9731226e-03 -3.4418744e-02 0.0000000e+00 
-1.1494566e-04 -3.4505416e-02 0.0000000e+00 
1.7414926e-03 -3.4610239e-02 0.0000000e+00 
-4.0565064e-03 -3.6864133e-02 0.0000000e+00 
-2.1272468e-03 -3.6939160e-02 0.0000000e+00 
-1.9972343e-04 -3.7032425e-02 0.0000000e+00 
1.7260168e-03 -3.7143850e-02 0.0000000e+00 
-4.2890505e-03 -3.9470133e-02 0.0000000e+00 
-2.2903427e-03 -3.9551999e-02 0.0000000e+00 
-2.9345529e-04 -3.9652102e-02 0.0000000e+00 
1.7016049e-03 -3.9770368e-02 0.0000000e+00 
-4.5308624e-03 -4.2168308e-02 0.0000000e+00 
-2.4627208e-03 -4.2257264e-02 0.0000000e+00 
-3.9648258e-04 -4.2364447e-02 0.0000000e+00 
1.6678844e-03 -4.2489788e-02 0.0000000e+00 
-4.7822183e-03 -4.4958624e-02 0.0000000e+00 
-2.6446878e-03 -4.5054918e-02 0.0000000e+00 
-5.0914270e-04 -4.5169421e-02 0.0000000e+00 
1.6244885e-03 -4.5302069e-02 0.0000000e+00 
-5.0433904e-03 -4.7841006e-02 0.0000000e+00 
-2.8365459e-03 -4.7944883e-02 0.0000000e+00 
-6.3176811e-04 -4.8066943e-02 0.0000000e+00 
1.5710535e-03 -4.8207126e-02 0.0000000e+00 
-5.3146465e-03 -5.0815343e-02 0.0000000e+00 
-3.0385929e-03 -5.0927041e-02 0.0000000e+00 
-7.6468550e-04 -5.1056890e-02 0.0000000e+00 
1.5072216e-03 -5.1204833e-02 0.0000000e+00 
-5.5962506e-03 -5.3881482e-02 0.0000000e+00 
-3.2511212e-03 -5.4001238e-02 0.0000000e+00 
-9.0821644e-04 -5.4139103e-02 0.0000000e+00 
1.4326474e-03 -5.4295027e-02 0.0000000e+00 
-5.8884606e-03 -5.7039235e-02 0.0000000e+00 
-3.4744174e-03 -5.7167280e-02 0.0000000e+00 
-1.0626760e-03 -5.7313385e-02 0.0000000e+00 
1.3469847e-03 -5.7477507e-02 0.0000000e+00 
-6.1915274e-03 -6.0288375e-02 0.0000000e+00 
-3.7087620e-03 -6.0424935e-02 0.0000000e+00 
-1.2283736e-03 -6.0579500e-02 0.0000000e+00 
1.2498959e-03 -6.0752029e-02 0.0000000e+00 
-6.5056956e-03 -6.3628639e-02 0.0000000e+00 
-3.9544285e-03 -6.3773935e-02 0.0000000e+00 
-1.4056124e-03 -6.3937171e-02 0.0000000e+00 
1.1410513e-03 -6.4118314e-02 0.0000000e+00 
-6.8312016e-03 -6.7059722e-02 0.0000000e+00 
-4.2116830e-03 -6.7213969e-02 0.0000000e+00 
-1.5946872e-03 -6.7386084e-02 0.0000000e+00 
1.0201207e-03 -6.7576039e-02 0.0000000e+00 
-7.1682752e-03 -7.0581283e-02 0.0000000e+00 
-4.4807838e-03 -7.0744689e-02 0.0000000e+00 
-1.7958852e-03 -7.0925883e-02 0.0000000e+00 
8.8679132e-04 -7.1124846e-02 0.0000000e+00 
-7.5171385e-03 -7.4192943e-02 0.0000000e+00 
-4.7619810e-03 -7.4365710e-02 0.0000000e+00 
-2.0094842e-03 -7.4556178e-02 0.0000000e+00 
7.4075779e-04 -7.4764334e-02 0.0000000e+00 
-7.8780064e-03 -7.7894286e-02 0.0000000e+00 
-5.0555163e-03 -7.8076609e-02 0.0000000e+00 
-2.2357528e-03 -7.8276539e-02 0.0000000e+00 
5.8172463e-04 -7.8494071e-02 0.0000000e+00 
-8.2510846e-03 -8.1684862e-02 0.0000000e+00 
-5.3616224e-03 -8.1876929e-02 0.0000000e+00 
-2.4749504e-03 -8.2086502e-02 0.0000000e+00 
4.0940581e-04 -8.2313582e-02 0.0000000e+00 
-8.6365708e-03 -8.5564187e-02 0.0000000e+00 
-5.6805229e-03 -8.5766178e-02 0.0000000e+00 
-2.7273266e-03 -8.5985568e-02 0.0000000e+00 
2.2352611e-04 -8.6222364e-02 0.0000000e+00 
-9.0346533e-03 -8.9531741e-02 0.0000000e+00 
-6.0124317e-03 -8.9743829e-02 0.0000000e+00 
-2.9931203e-03 -8.9973201e-02 0.0000000e+00 
2.3820584e-05 -9.0219874e-02 0.0000000e+00 
-9.4455118e-03 -9.3586971e-02 0.0000000e+00 
-6.3575529e-03 -9.3809320e-02 0.0000000e+00 
-3.2725605e-03 -9.4048834e-02 0.0000000e+00 
-1.8996376e-04 -9.4305534e-02 0.0000000e+00 
-9.8693170e-03 -9.7729293e-02 0.0000000e+00 
-6.7160810e-03 -9.7962062e-02 0.0000000e+00 
-3.5658652e-03 -9.8211867e-02 0.0000000e+00 
-4.1806851e-04 -9.8478740e-02 0.0000000e+00 
-1.0306230e-02 -1.0195809e-01 0.0000000e+00 
-7.0881998e-03 -1.0220143e-01 0.0000000e+00 
-3.8732413e-03 -1.0246167e-01 0.0000000e+00 
-6.6072374e-04 -1.0273885e-01 0.0000000e+00 
-1.0756401e-02 -1.0627273e-01 0.0000000e+00 
-7.4740829e-03 -1.0652677e-01 0.0000000e+00 
-4.1948848e-03 -1.0679758e-01 0.0000000e+00 
-9.1814758e-04 -1.0708520e-01 0.0000000e+00 
-1.1219972e-02 -1.1067252e-01 0.0000000e+00 
-7.8738929e-03 -1.1093740e-01 0.0000000e+00 
-4.5309799e-03 -1.1121890e-01 0.0000000e+00 
-1.1905462e-03 -1.1151708e-01 0.0000000e+00 
-1.1697073e-02 -1.1515677e-01 0.0000000e+00 
-8.2877818e-03 -1.1543261e-01 0.0000000e+00 
-4.8816985e-03 -1.1572493e-01 0.0000000e+00 
-1.4781142e-03 -1.1603377e-01 0.0000000e+00 
-1.2187829e-02 -1.1972475e-01 0.0000000e+00 
-8.7158908e-03 -1.2001166e-01 0.0000000e+00 
-5.2472015e-03 -1.2031490e-01 0.0000000e+00 
-1.7810259e-03 -1.2063452e-01 0.0000000e+00 
-1.2692350e-02 -1.2437570e-01 0.0000000e+00 
-9.1583501e-03 -1.2467380e-01 0.0000000e+00 
-5.6276374e-03 -1.2498806e-01 0.0000000e+00 
-2.0994521e-03 -1.2531855e-01 0.0000000e+00 
-1.3210736e-02 -1.2910885e-01 0.0000000e+00 
-9.6152786e-03 -1.2941823e-01 0.0000000e+00 
-6.0231439e-03 -1.2974360e-01 0.0000000e+00 
-2.4335475e-03 -1.3008505e-01 0.0000000e+00 
-1.3743074e-02 -1.3392340e-01 0.0000000e+00 
-1.0086783e-02 -1.3424415e-01 0.0000000e+00 
-6.4338478e-03 -1.3458072e-01 0.0000000e+00 
-2.7834556e-03 -1.3493320e-01 0.0000000e+00 
-1.4289442e-02 -1.3881852e-01 0.0000000e+00 
-1.0572960e-02 -1.3915071e-01 0.0000000e+00 
-6.8598624e-03 -1.3949855e-01 0.0000000e+00 
-3.1493152e-03 -1.3986214e-01 0.0000000e+00 
-1.4849904e-02 -1.4379336e-01 0.0000000e+00 
-1.1073891e-02 -1.4413706e-01 0.0000000e+00 
-7.3012893e-03 -1.4449623e-01 0.0000000e+00 
-3.5312426e-03 -1.4487099e-01 0.0000000e+00 
-1.5424517e-02 -1.4884703e-01 0.0000000e+00 
-1.1589649e-02 -1.4920231e-01 0.0000000e+00 
-7.7582162e-03 -1.4957288e-01 0.0000000e+00 
-3.9293415e-03 -1.4995885e-01 0.0000000e+00 
-1.6013325e-02 -1.5397866e-01 0.0000000e+00 
-1.2120294e-02 -1.5434556e-01 0.0000000e+00 
-8.2307191e-03 -1.5472756e-01 0.0000000e+00 
-4.3437034e-03 -1.5512479e-01 0.0000000e+00 
-1.6616361e-02 -1.5918731e-01 0.0000000e+00 
-1.2665874e-02 -1.5956587e-01 0.0000000e+00 
-8.7188604e-03 -1.5995935e-01 0.0000000e+00 
-4.7744059e-03 -1.6036787e-01 0.0000000e+00 
-1.7233650e-02 -1.6447205e-01 0.0000000e+00 
-1.3226426e-02 -1.6486231e-01 0.0000000e+00 
-9.2226908e-03 -1.6526729e-01 0.0000000e+00 
-5.2215127e-03 -1.6568713e-01 0.0000000e+00 
-1.7865203e-02 -1.6983194e-01 0.0000000e+00 
-1.3801976e-02 -1.7023392e-01 0.0000000e+00 
-9.7422489e-03 -1.7065042e-01 0.0000000e+00 
-5.6850750e-03 -1.7108159e-01 0.0000000e+00 
-1.8511024e-02 -1.7526599e-01 0.0000000e+00 
-1.4392537e-02 -1.7567970e-01 0.0000000e+00 
-1.0277561e-02 -1.7610774e-01 0.0000000e+00 
-6.1651313e-03 -1.7655025e-01 0.0000000e+00 
-1.9171104e-02 -1.8077323e-01 0.0000000e+00 
-1.4998114e-02 -1.8119868e-01 0.0000000e+00 
-1.0828640e-02 -1.8163825e-01 0.0000000e+00 
-6.6617084e-03 -1.8209210e-01 0.0000000e+00 
-1.9845428e-02 -1.8635266e-01 0.0000000e+00 
-1.5618698e-02 -1.8678984e-01 0.0000000e+00 
-1.1395489e-02 -1.8724094e-01 0.0000000e+00 
-7.1748124e-03 -1.8770612e-01 0.0000000e+00 
-2.0533969e-02 -1.9200326e-01 0.0000000e+00 
-1.6254272e-02 -1.9245217e-01 0.0000000e+00 
-1.1978098e-02 -1.9291478e-01 0.0000000e+00 
-7.7044466e-03 -1.9339128e-01 0.0000000e+00 
-2.1236685e-02 -1.9772402e-01 0.0000000e+00 
-1.6904805e-02 -1.9818463e-01 0.0000000e+00 
-1.2576448e-02 -1.9865873e-01 0.0000000e+00 
-8.2505989e-03 -1.9914652e-01 0.0000000e+00 
-2.1953528e-02 -2.0351389e-01 0.0000000e+00 
-1.7570258e-02 -2.0398618e-01 0.0000000e+00 
-1.3190507e-02 -2.0447175e-01 0.0000000e+00 
-8.8132466e-03 -2.0497079e-01 0.0000000e+00 
-2.2684436e-02 -2.0937184e-01 0.0000000e+00 
-1.8250579e-02 -2.0985576e-01 0.0000000e+00 
-1.3820234e-02 -2.1035275e-01 0.0000000e+00 
-9.3923626e-03 -2.1086301e-01 0.0000000e+00 
-2.3429338e-02 -2.1529679e-01 0.0000000e+00 
-1.8945704e-02 -2.1579231e-01 0.0000000e+00 
-1.4465575e-02 -2.1630067e-01 0.0000000e+00 
-9.9878995e-03 -2.1682210e-01 0.0000000e+00 
-2.4188154e-02 -2.2128769e-01 0.0000000e+00 
-1.9655562e-02 -2.2179473e-01 0.0000000e+00 
-1.5126463e-02 -2.2231442e-01 0.0000000e+00 
-1.0599799e-02 -2.2284695e-01 0.0000000e+00 
-2.4960792e-02 -2.2734343e-01 0.0000000e+00 
-2.0380068e-02 -2.2786195e-01 0.0000000e+00 
-1.5802823e-02 -2.2839289e-01 0.0000000e+00 
-1.1227991e-02 -2.2893647e-01 0.0000000e+00 
-2.5747154e-02 -2.3346294e-01 0.0000000e+00 
-2.1119129e-02 -2.3399287e-01 0.0000000e+00 
-1.6494567e-02 -2.3453499e-01 0.0000000e+00 
-1.1872394e-02 -2.3508953e-01 0.0000000e+00 
-2.6547132e-02 -2.3964512e-01 0.0000000e+00 
-2.1872642e-02 -2.4018637e-01 0.0000000e+00 
-1.7201598e-02 -2.4073960e-01 0.0000000e+00 
-1.2532918e-02 -2.4130502e-01 0.0000000e+00 
-2.7360605e-02 -2.4588885e-01 0.0000000e+00 
-2.2640493e-02 -2.4644134e-01 0.0000000e+00 
-1.7923808e-02 -2.4700559e-01 0.0000000e+00 
-1.3209458e-02 -2.4758181e-01 0.0000000e+00 
-2.8187449e-02 -2.5219302e-01 0.0000000e+00 
-2.3422561e-02 -2.5275666e-01 0.0000000e+00 
-1.8661078e-02 -2.5333183e-01 0.0000000e+00 
-1.3901902e-02 -2.5391877e-01 0.0000000e+00 
-2.9027527e-02 -2.5855652e-01 0.0000000e+00 
-2.4218715e-02 -2.5913121e-01 0.0000000e+00 
-1.9413281e-02 -2.5971721e-01 0.0000000e+00 
-1.4610126e-02 -2.6031474e-01 0.0000000e+00 
-2.9880697e-02 -2.6497822e-01 0.0000000e+00 
-2.5028813e-02 -2.6556386e-01 0.0000000e+00 
-2.0180281e-02 -2.6616057e-01 0.0000000e+00 
-1.5333995e-02 -2.6676860e-01 0.0000000e+00 
-3.0746807e-02 -2.7145700e-01 0.0000000e+00 
-2.5852707e-02 -2.7205346e-01 0.0000000e+00 
-2.0961930e-02 -2.7266078e-01 0.0000000e+00 
-1.6073367e-02 -2.7327919e-01 0.0000000e+00 
-3.1625698e-02 -2.7799171e-01 0.0000000e+00 
-2.6690240e-02 -2.7859889e-01 0.0000000e+00 
-2.1758075e-02 -2.7921669e-01 0.0000000e+00 
-1.6828090e-02 -2.7984536e-01 0.0000000e+00 
-3.2517202e-02 -2.8458124e-01 0.0000000e+00 
-2.7541247e-02 -2.8519900e-01 0.0000000e+00 
-2.2568550e-02 -2.8582715e-01 0.0000000e+00 
-1.7598001e-02 -2.8646596e-01 0.0000000e+00 
-3.3421149e-02 -2.9122443e-01 0.0000000e+00 
-2.8405555e-02 -2.9185264e-01 0.0000000e+00 
-2.3393185e-02 -2.9249102e-01 0.0000000e+00 
-1.8382926e-02 -2.9313983e-01 0.0000000e+00 
-3.4337360e-02 -2.9792016e-01 0.0000000e+00 
-2.9282985e-02 -2.9855869e-01 0.0000000e+00 
-2.4231799e-02 -2.9920716e-01 0.0000000e+00 
-1.9182688e-02 -2.9986583e-01 0.0000000e+00 
-3.5265645e-02 -3.0466729e-01 0.0000000e+00 
-3.0173350e-02 -3.0531599e-01 0.0000000e+00 
-2.5084206e-02 -3.0597440e-01 0.0000000e+00 
-1.9997098e-02 -3.0664280e-01 0.0000000e+00 
-3.6205809e-02 -3.1146468e-01 0.0000000e+00 
-3.1076454e-02 -3.1212340e-01 0.0000000e+00 
-2.5950213e-02 -3.1279161e-01 0.0000000e+00 
-2.0825965e-02 -3.1346959e-01 0.0000000e+00 
-3.7157648e-02 -3.1831119e-01 0.0000000e+00 
-3.1992097e-02 -3.1897979e-01 0.0000000e+00 
-2.6829619e-02 -3.1965764e-01 0.0000000e+00 
-2.1669093e-02 -3.2034503e-01 0.0000000e+00 
-3.8120953e-02 -3.2520568e-01 0.0000000e+00 
-3.2920070e-02 -3.2588399e-01 0.0000000e+00 
-2.7722216e-02 -3.2657133e-01 0.0000000e+00 
-2.2526272e-02 -3.2726798e-01 0.0000000e+00 
-3.9095510e-02 -3.3214702e-01 0.0000000e+00 
-3.3860156e-02 -3.3283487e-01 0.0000000e+00 
-2.8627788e-02 -3.3353153e-01 0.0000000e+00 
-2.3397285e-02 -3.3423728e-01 0.0000000e+00 
-4.0081098e-02 -3.3913405e-01 0.0000000e+00 
-3.4812135e-02 -3.3983128e-01 0.0000000e+00 
-2.9546112e-02 -3.4053710e-01 0.0000000e+00 
-2.4281910e-02 -3.4125177e-01 0.0000000e+00 
-4.1077492e-02 -3.4616564e-01 0.0000000e+00 
-3.5775779e-02 -3.4687208e-01 0.0000000e+00 
-3.0476960e-02 -3.4758687e-01 0.0000000e+00 
-2.5179917e-02 -3.4831030e-01 0.0000000e+00 
-4.2084462e-02 -3.5324064e-01 0.0000000e+00 
-3.6750857e-02 -3.5395611e-01 0.0000000e+00 
-3.1420097e-02 -3.5467971e-01 0.0000000e+00 
-2.6091068e-02 -3.5541172e-01 0.0000000e+00 
-4.3101772e-02 -3.6035794e-01 0.0000000e+00 
-3.7737130e-02 -3.6108225e-01 0.0000000e+00 
-3.2375284e-02 -3.6181447e-01 0.0000000e+00 
-2.7015122e-02 -3.6255488e-01 0.0000000e+00 
-4.4129185e-02 -3.6751638e-01 0.0000000e+00 
-3.8734358e-02 -3.6824936e-01 0.0000000e+00 
-3.3342276e-02 -3.6899001e-01 0.0000000e+00 
-2.7951832e-02 -3.6973864e-01 0.0000000e+00 
-4.5166456e-02 -3.7471485e-01 0.0000000e+00 
-3.9742293e-02 -3.7545630e-01 0.0000000e+00 
-3.4320822e-02 -3.7620520e-01 0.0000000e+00 
-2.8900944e-02 -3.7696186e-01 0.0000000e+00 
-4.6213344e-02 -3.8195222e-01 0.0000000e+00 
-4.0760687e-02 -3.8270195e-01 0.0000000e+00 
-3.5310668e-02 -3.8345892e-01 0.0000000e+00 
-2.9862195e-02 -3.8422341e-01 0.0000000e+00 
-4.7269601e-02 -3.8922737e-01 0.0000000e+00 
-4.1789285e-02 -3.8998519e-01 0.0000000e+00 
-3.6311557e-02 -3.9075003e-01 0.0000000e+00 
-3.0835326e-02 -3.9152217e-01 0.0000000e+00 
-4.8334972e-02 -3.9653921e-01 0.0000000e+00 
-4.2827833e-02 -3.9730492e-01 0.0000000e+00 
-3.7323227e-02 -3.9807742e-01 0.0000000e+00 
-3.1820069e-02 -3.9885702e-01 0.0000000e+00 
-4.9409203e-02 -4.0388661e-01 0.0000000e+00 
-4.3876069e-02 -4.0466001e-01 0.0000000e+00 
-3.8345414e-02 -4.0544000e-01 0.0000000e+00 
-3.2816155e-02 -4.0622685e-01 0.0000000e+00 
-5.0492032e-02 -4.1126849e-01 0.0000000e+00 
-4.4933730e-02 -4.1204938e-01 0.0000000e+00 
-3.9377851e-02 -4.1283664e-01 0.0000000e+00 
-3.3823319e-02 -4.1363056e-01 0.0000000e+00 
-5.1583197e-02 -4.1868375e-01 0.0000000e+00 
-4.6000550e-02 -4.1947193e-01 0.0000000e+00 
-4.0420267e-02 -4.2026625e-01 0.0000000e+00 
-3.4841282e-02 -4.2106703e-01 0.0000000e+00 
-5.2682436e-02 -4.2613129e-01 0.0000000e+00 
-4.7076258e-02 -4.2692655e-01 0.0000000e+00 
-4.1472388e-02 -4.2772775e-01 0.0000000e+00 
-3.5869764e-02 -4.2853518e-01 0.0000000e+00 
-5.3789484e-02 -4.3361004e-01 0.0000000e+00 
-4.8160585e-02 -4.3441218e-01 0.0000000e+00 
-4.2533936e-02 -4.3522004e-01 0.0000000e+00 
-3.6908483e-02 -4.3603391e-01 0.0000000e+00 
-5.4904075e-02 -4.4111893e-01 0.0000000e+00 
-4.9253258e-02 -4.4192773e-01 0.0000000e+00 
-4.3604633e-02 -4.4274204e-01 0.0000000e+00 
-3.7957153e-02 -4.4356216e-01 0.0000000e+00 
-5.6025943e-02 -4.4865688e-01 0.0000000e+00 
-5.0354005e-02 -4.4947214e-01 0.0000000e+00 
-4.4684198e-02 -4.5029270e-01 0.0000000e+00 
-3.9015488e-02 -4.5111886e-01 0.0000000e+00 
-5.7154821e-02 -4.5622285e-01 0.0000000e+00 
-5.1462550e-02 -4.5704435e-01 0.0000000e+00 
-4.5772351e-02 -4.5787095e-01 0.0000000e+00 
-4.0083198e-02 -4.5870294e-01 0.0000000e+00 
-5.8290444e-02 -4.6381579e-01 0.0000000e+00 
-5.2578620e-02 -4.6464332e-01 0.0000000e+00 
-4.6868807e-02 -4.6547574e-01 0.0000000e+00 
-4.1159992e-02 -4.6631337e-01 0.0000000e+00 
-5.9432545e-02 -4.7143465e-01 0.0000000e+00 
-5.3701939e-02 -4.7226800e-01 0.0000000e+00 
-4.7973285e-02 -4.7310605e-01 0.0000000e+00 
-4.2245578e-02 -4.7394909e-01 0.0000000e+00 
-6.0580859e-02 -4.7907842e-01 0.0000000e+00 
-5.4832235e-02 -4.7991739e-01 0.0000000e+00 
-4.9085500e-02 -4.8076085e-01 0.0000000e+00 
-4.3339666e-02 -4.8160910e-01 0.0000000e+00 
-6.1735124e-02 -4.8674609e-01 0.0000000e+00 
-5.5969233e-02 -4.8759045e-01 0.0000000e+00 
-5.0205171e-02 -4.8843912e-01 0.0000000e+00 
-4.4441962e-02 -4.8929238e-01 0.0000000e+00 