# vtk DataFile Version 4.0
vtk output
ASCII
DATASET UNSTRUCTURED_GRID
POINTS 604 float
5.5000000e+00 5.9700000e+00 0.0000000e+00 
5.5000000e+00 5.9900000e+00 0.0000000e+00 
5.5266667e+00 5.9700000e+00 0.0000000e+00 
5.5266667e+00 5.9900000e+00 0.0000000e+00 
5.5000000e+00 6.0100000e+00 0.0000000e+00 
5.5266667e+00 6.0100000e+00 0.0000000e+00 
5.5533333e+00 5.9700000e+00 0.0000000e+00 
5.5533333e+00 5.9900000e+00 0.0000000e+00 
5.5000000e+00 6.0300000e+00 0.0000000e+00 
5.5266667e+00 6.0300000e+00 0.0000000e+00 
5.5533333e+00 6.0100000e+00 0.0000000e+00 
5.5800000e+00 5.9700000e+00 0.0000000e+00 
5.5533333e+00 6.0300000e+00 0.0000000e+00 
5.5800000e+00 5.9900000e+00 0.0000000e+00 
5.5800000e+00 6.0100000e+00 0.0000000e+00 
5.5800000e+00 6.0300000e+00 0.0000000e+00 
5.6066667e+00 5.9700000e+00 0.0000000e+00 
5.6066667e+00 5.9900000e+00 0.0000000e+00 
5.6066667e+00 6.0100000e+00 0.0000000e+00 
5.6066667e+00 6.0300000e+00 0.0000000e+00 
5.6333333e+00 5.9700000e+00 0.0000000e+00 
5.6333333e+00 5.9900000e+00 0.0000000e+00 
5.6333333e+00 6.0100000e+00 0.0000000e+00 
5.6333333e+00 6.0300000e+00 0.0000000e+00 
5.6600000e+00 5.9700000e+00 0.0000000e+00 
5.6600000e+00 5.9900000e+00 0.0000000e+00 
5.6600000e+00 6.0100000e+00 0.0000000e+00 
5.6600000e+00 6.0300000e+00 0.0000000e+00 
5.6866667e+00 5.9700000e+00 0.0000000e+00 
5.6866667e+00 5.9900000e+00 0.0000000e+00 
5.6866667e+00 6.0100000e+00 0.0000000e+00 
5.6866667e+00 6.0300000e+00 0.0000000e+00 
5.7133333e+00 5.9700000e+00 0.0000000e+00 
5.7133333e+00 5.9900000e+00 0.0000000e+00 
5.7133333e+00 6.0100000e+00 0.0000000e+00 
5.7133333e+00 6.0300000e+00 0.0000000e+00 
5.7400000e+00 5.9700000e+00 0.0000000e+00 
5.7400000e+00 5.9900000e+00 0.0000000e+00 
5.7400000e+00 6.0100000e+00 0.0000000e+00 
5.7400000e+00 6.0300000e+00 0.0000000e+00 
5.7666667e+00 5.9700000e+00 0.0000000e+00 
5.7666667e+00 5.9900000e+00 0.0000000e+00 
5.7666667e+00 6.0100000e+00 0.0000000e+00 
5.7666667e+00 6.0300000e+00 0.0000000e+00 
5.7933333e+00 5.9700000e+00 0.0000000e+00 
5.7933333e+00 5.9900000e+00 0.0000000e+00 
5.7933333e+00 6.0100000e+00 0.0000000e+00 
5.7933333e+00 6.0300000e+00 0.0000000e+00 
5.8200000e+00 5.9700000e+00 0.0000000e+00 
5.8200000e+00 5.9900000e+00 0.0000000e+00 
5.8200000e+00 6.0100000e+00 0.0000000e+00 
5.8200000e+00 6.0300000e+00 0.0000000e+00 
5.8466667e+00 5.9700000e+00 0.0000000e+00 
5.8466667e+00 5.9900000e+00 0.0000000e+00 
5.8466667e+00 6.0100000e+00 0.0000000e+00 
5.8466667e+00 6.0300000e+00 0.0000000e+00 
5.8733333e+00 5.9700000e+00 0.0000000e+00 
5.8733333e+00 5.9900000e+00 0.0000000e+00 
5.8733333e+00 6.0100000e+00 0.0000000e+00 
5.8733333e+00 6.0300000e+00 0.0000000e+00 
5.9000000e+00 5.9700000e+00 0.0000000e+00 
5.9000000e+00 5.9900000e+00 0.0000000e+00 
5.9000000e+00 6.0100000e+00 0.0000000e+00 
5.9000000e+00 6.0300000e+00 0.0000000e+00 
5.9266667e+00 5.9700000e+00 0.0000000e+00 
5.9266667e+00 5.9900000e+00 0.0000000e+00 
5.9266667e+00 6.0100000e+00 0.0000000e+00 
5.9266667e+00 6.0300000e+00 0.0000000e+00 
5.9533333e+00 5.9700000e+00 0.0000000e+00 
5.9533333e+00 5.9900000e+00 0.0000000e+00 
5.9533333e+00 6.0100000e+00 0.0000000e+00 
5.9533333e+00 6.0300000e+00 0.0000000e+00 
5.9800000e+00 5.9700000e+00 0.0000000e+00 
5.9800000e+00 5.9900000e+00 0.0000000e+00 
5.9800000e+00 6.0100000e+00 0.0000000e+00 
5.9800000e+00 6.0300000e+00 0.0000000e+00 
6.0066667e+00 5.9700000e+00 0.0000000e+00 
6.0066667e+00 5.9900000e+00 0.0000000e+00 
6.0066667e+00 6.0100000e+00 0.0000000e+00 
6.0066667e+00 6.0300000e+00 0.0000000e+00 
6.0333333e+00 5.9700000e+00 0.0000000e+00 
6.0333333e+00 5.9900000e+00 0.0000000e+00 
6.0333333e+00 6.0100000e+00 0.0000000e+00 
6.0333333e+00 6.0300000e+00 0.0000000e+00 
6.0600000e+00 5.9700000e+00 0.0000000e+00 
6.0600000e+00 5.9900000e+00 0.0000000e+00 
6.0600000e+00 6.0100000e+00 0.0000000e+00 
6.0600000e+00 6.0300000e+00 0.0000000e+00 
6.0866667e+00 5.9700000e+00 0.0000000e+00 
6.0866667e+00 5.9900000e+00 0.0000000e+00 
6.0866667e+00 6.0100000e+00 0.0000000e+00 
6.0866667e+00 6.0300000e+00 0.0000000e+00 
6.1133333e+00 5.9700000e+00 0.0000000e+00 
6.1133333e+00 5.9900000e+00 0.0000000e+00 
6.1133333e+00 6.0100000e+00 0.0000000e+00 
6.1133333e+00 6.0300000e+00 0.0000000e+00 
6.1400000e+00 5.9700000e+00 0.0000000e+00 
6.1400000e+00 5.9900000e+00 0.0000000e+00 
6.1400000e+00 6.0100000e+00 0.0000000e+00 
6.1400000e+00 6.0300000e+00 0.0000000e+00 
6.1666667e+00 5.9700000e+00 0.0000000e+00 
6.1666667e+00 5.9900000e+00 0.0000000e+00 
6.1666667e+00 6.0100000e+00 0.0000000e+00 
6.1666667e+00 6.0300000e+00 0.0000000e+00 
6.1933333e+00 5.9700000e+00 0.0000000e+00 
6.1933333e+00 5.9900000e+00 0.0000000e+00 
6.1933333e+00 6.0100000e+00 0.0000000e+00 
6.1933333e+00 6.0300000e+00 0.0000000e+00 
6.2200000e+00 5.9700000e+00 0.0000000e+00 
6.2200000e+00 5.9900000e+00 0.0000000e+00 
6.2200000e+00 6.0100000e+00 0.0000000e+00 
6.2200000e+00 6.0300000e+00 0.0000000e+00 
6.2466667e+00 5.9700000e+00 0.0000000e+00 
6.2466667e+00 5.9900000e+00 0.0000000e+00 
6.2466667e+00 6.0100000e+00 0.0000000e+00 
6.2466667e+00 6.0300000e+00 0.0000000e+00 
6.2733333e+00 5.9700000e+00 0.0000000e+00 
6.2733333e+00 5.9900000e+00 0.0000000e+00 
6.2733333e+00 6.0100000e+00 0.0000000e+00 
6.2733333e+00 6.0300000e+00 0.0000000e+00 
6.3000000e+00 5.9700000e+00 0.0000000e+00 
6.3000000e+00 5.9900000e+00 0.0000000e+00 
6.3000000e+00 6.0100000e+00 0.0000000e+00 
6.3000000e+00 6.0300000e+00 0.0000000e+00 
6.3266667e+00 5.9700000e+00 0.0000000e+00 
6.3266667e+00 5.9900000e+00 0.0000000e+00 
6.3266667e+00 6.0100000e+00 0.0000000e+00 
6.3266667e+00 6.0300000e+00 0.0000000e+00 
6.3533333e+00 5.9700000e+00 0.0000000e+00 
6.3533333e+00 5.9900000e+00 0.0000000e+00 
6.3533333e+00 6.0100000e+00 0.0000000e+00 
6.3533333e+00 6.0300000e+00 0.0000000e+00 
6.3800000e+00 5.9700000e+00 0.0000000e+00 
6.3800000e+00 5.9900000e+00 0.0000000e+00 
6.3800000e+00 6.0100000e+00 0.0000000e+00 
6.3800000e+00 6.0300000e+00 0.0000000e+00 
6.4066667e+00 5.9700000e+00 0.0000000e+00 
6.4066667e+00 5.9900000e+00 0.0000000e+00 
6.4066667e+00 6.0100000e+00 0.0000000e+00 
6.4066667e+00 6.0300000e+00 0.0000000e+00 
6.4333333e+00 5.9700000e+00 0.0000000e+00 
6.4333333e+00 5.9900000e+00 0.0000000e+00 
6.4333333e+00 6.0100000e+00 0.0000000e+00 
6.4333333e+00 6.0300000e+00 0.0000000e+00 
6.4600000e+00 5.9700000e+00 0.0000000e+00 
6.4600000e+00 5.9900000e+00 0.0000000e+00 
6.4600000e+00 6.0100000e+00 0.0000000e+00 
6.4600000e+00 6.0300000e+00 0.0000000e+00 
6.4866667e+00 5.9700000e+00 0.0000000e+00 
6.4866667e+00 5.9900000e+00 0.0000000e+00 
6.4866667e+00 6.0100000e+00 0.0000000e+00 
6.4866667e+00 6.0300000e+00 0.0000000e+00 
6.5133333e+00 5.9700000e+00 0.0000000e+00 
6.5133333e+00 5.9900000e+00 0.0000000e+00 
6.5133333e+00 6.0100000e+00 0.0000000e+00 
6.5133333e+00 6.0300000e+00 0.0000000e+00 
6.5400000e+00 5.9700000e+00 0.0000000e+00 
6.5400000e+00 5.9900000e+00 0.0000000e+00 
6.5400000e+00 6.0100000e+00 0.0000000e+00 
6.5400000e+00 6.0300000e+00 0.0000000e+00 
6.5666667e+00 5.9700000e+00 0.0000000e+00 
6.5666667e+00 5.9900000e+00 0.0000000e+00 
6.5666667e+00 6.0100000e+00 0.0000000e+00 
6.5666667e+00 6.0300000e+00 0.0000000e+00 
6.5933333e+00 5.9700000e+00 0.0000000e+00 
6.5933333e+00 5.9900000e+00 0.0000000e+00 
6.5933333e+00 6.0100000e+00 0.0000000e+00 
6.5933333e+00 6.0300000e+00 0.0000000e+00 
6.6200000e+00 5.9700000e+00 0.0000000e+00 
6.6200000e+00 5.9900000e+00 0.0000000e+00 
6.6200000e+00 6.0100000e+00 0.0000000e+00 
6.6200000e+00 6.0300000e+00 0.0000000e+00 
6.6466667e+00 5.9700000e+00 0.0000000e+00 
6.6466667e+00 5.9900000e+00 0.0000000e+00 
6.6466667e+00 6.0100000e+00 0.0000000e+00 
6.6466667e+00 6.0300000e+00 0.0000000e+00 
6.6733333e+00 5.9700000e+00 0.0000000e+00 
6.6733333e+00 5.9900000e+00 0.0000000e+00 
6.6733333e+00 6.0100000e+00 0.0000000e+00 
6.6733333e+00 6.0300000e+00 0.0000000e+00 
6.7000000e+00 5.9700000e+00 0.0000000e+00 
6.7000000e+00 5.9900000e+00 0.0000000e+00 
6.7000000e+00 6.0100000e+00 0.0000000e+00 
6.7000000e+00 6.0300000e+00 0.0000000e+00 
6.7266667e+00 5.9700000e+00 0.0000000e+00 
6.7266667e+00 5.9900000e+00 0.0000000e+00 
6.7266667e+00 6.0100000e+00 0.0000000e+00 
6.7266667e+00 6.0300000e+00 0.0000000e+00 
6.7533333e+00 5.9700000e+00 0.0000000e+00 
6.7533333e+00 5.9900000e+00 0.0000000e+00 
6.7533333e+00 6.0100000e+00 0.0000000e+00 
6.7533333e+00 6.0300000e+00 0.0000000e+00 
6.7800000e+00 5.9700000e+00 0.0000000e+00 
6.7800000e+00 5.9900000e+00 0.0000000e+00 
6.7800000e+00 6.0100000e+00 0.0000000e+00 
6.7800000e+00 6.0300000e+00 0.0000000e+00 
6.8066667e+00 5.9700000e+00 0.0000000e+00 
6.8066667e+00 5.9900000e+00 0.0000000e+00 
6.8066667e+00 6.0100000e+00 0.0000000e+00 
6.8066667e+00 6.0300000e+00 0.0000000e+00 
6.8333333e+00 5.9700000e+00 0.0000000e+00 
6.8333333e+00 5.9900000e+00 0.0000000e+00 
6.8333333e+00 6.0100000e+00 0.0000000e+00 
6.8333333e+00 6.0300000e+00 0.0000000e+00 
6.8600000e+00 5.9700000e+00 0.0000000e+00 
6.8600000e+00 5.9900000e+00 0.0000000e+00 
6.8600000e+00 6.0100000e+00 0.0000000e+00 
6.8600000e+00 6.0300000e+00 0.0000000e+00 
6.8866667e+00 5.9700000e+00 0.0000000e+00 
6.8866667e+00 5.9900000e+00 0.0000000e+00 
6.8866667e+00 6.0100000e+00 0.0000000e+00 
6.8866667e+00 6.0300000e+00 0.0000000e+00 
6.9133333e+00 5.9700000e+00 0.0000000e+00 
6.9133333e+00 5.9900000e+00 0.0000000e+00 
6.9133333e+00 6.0100000e+00 0.0000000e+00 
6.9133333e+00 6.0300000e+00 0.0000000e+00 
6.9400000e+00 5.9700000e+00 0.0000000e+00 
6.9400000e+00 5.9900000e+00 0.0000000e+00 
6.9400000e+00 6.0100000e+00 0.0000000e+00 
6.9400000e+00 6.0300000e+00 0.0000000e+00 
6.9666667e+00 5.9700000e+00 0.0000000e+00 
6.9666667e+00 5.9900000e+00 0.0000000e+00 
6.9666667e+00 6.0100000e+00 0.0000000e+00 
6.9666667e+00 6.0300000e+00 0.0000000e+00 
6.9933333e+00 5.9700000e+00 0.0000000e+00 
6.9933333e+00 5.9900000e+00 0.0000000e+00 
6.9933333e+00 6.0100000e+00 0.0000000e+00 
6.9933333e+00 6.0300000e+00 0.0000000e+00 
7.0200000e+00 5.9700000e+00 0.0000000e+00 
7.0200000e+00 5.9900000e+00 0.0000000e+00 
[...]
POINT_DATA 604
FIELD FieldData 2
DISPLACEMENT 3 604  float
0.0000000e+00 0.0000000e+00 0.0000000e+00 
0.0000000e+00 0.0000000e+00 0.0000000e+00 
-2.1095319e-04 -1.2537200e-04 0.0000000e+00 
-6.7723212e-05 -8.1870329e-05 0.0000000e+00 
0.0000000e+00 0.0000000e+00 0.0000000e+00 
6.5574325e-05 -8.2531049e-05 0.0000000e+00 
-4.2686301e-04 -4.0267200e-04 0.0000000e+00 
-1.4438308e-04 -3.6847099e-04 0.0000000e+00 
0.0000000e+00 0.0000000e+00 0.0000000e+00 
2.0839655e-04 -1.2715392e-04 0.0000000e+00 
1.3749541e-04 -3.7073855e-04 0.0000000e+00 
-6.4252082e-04 -8.7225627e-04 0.0000000e+00 
4.1895973e-04 -4.0918588e-04 0.0000000e+00 
-2.1898846e-04 -8.4024317e-04 0.0000000e+00 
2.0211759e-04 -8.4493596e-04 0.0000000e+00 
6.2405359e-04 -8.8609744e-04 0.0000000e+00 
-8.5857135e-04 -1.5252356e-03 0.0000000e+00 
-2.9694121e-04 -1.4972831e-03 0.0000000e+00 
2.6222396e-04 -1.5053436e-03 0.0000000e+00 
8.2179627e-04 -1.5492252e-03 0.0000000e+00 
-1.0764075e-03 -2.3593764e-03 0.0000000e+00 
-3.7882729e-04 -2.3362602e-03 0.0000000e+00 
3.1605575e-04 -2.3485719e-03 0.0000000e+00 
1.0111343e-03 -2.3961424e-03 0.0000000e+00 
-1.2971572e-03 -3.3717313e-03 0.0000000e+00 
-4.6585595e-04 -3.3542899e-03 0.0000000e+00 
3.6254689e-04 -3.3716826e-03 0.0000000e+00 
1.1909227e-03 -3.4237683e-03 0.0000000e+00 
-1.5219156e-03 -4.5594309e-03 0.0000000e+00 
-5.5910459e-04 -4.5484480e-03 0.0000000e+00 
4.0061643e-04 -4.5717098e-03 0.0000000e+00 
1.3601006e-03 -4.6291012e-03 0.0000000e+00 
-1.7517206e-03 -5.9196101e-03 0.0000000e+00 
-6.5960101e-04 -5.9158285e-03 0.0000000e+00 
4.2924824e-04 -5.9457051e-03 0.0000000e+00 
1.5176614e-03 -6.0091505e-03 0.0000000e+00 
-1.9875557e-03 -7.4494179e-03 0.0000000e+00 
-7.6831705e-04 -7.4535390e-03 0.0000000e+00 
4.4748140e-04 -7.4907352e-03 0.0000000e+00 
1.6626552e-03 -7.5609420e-03 0.0000000e+00 
-2.2303504e-03 -9.1460165e-03 0.0000000e+00 
-8.8617089e-04 -9.1587015e-03 0.0000000e+00 
4.5440945e-04 -9.2038821e-03 0.0000000e+00 
1.7941866e-03 -9.2815179e-03 0.0000000e+00 
-2.4809835e-03 -1.1006583e-02 0.0000000e+00 
-1.0140280e-03 -1.1028454e-02 0.0000000e+00 
4.4917875e-04 -1.1082244e-02 0.0000000e+00 
1.9114140e-03 -1.1167938e-02 0.0000000e+00 
-2.7402807e-03 -1.3028307e-02 0.0000000e+00 
-1.1527029e-03 -1.3059949e-02 0.0000000e+00 
4.3098733e-04 -1.3122937e-02 0.0000000e+00 
2.0135471e-03 -1.3217279e-02 0.0000000e+00 
-3.0090213e-03 -1.5208397e-02 0.0000000e+00 
-1.3029605e-03 -1.5250356e-02 0.0000000e+00 
3.9908333e-04 -1.5323093e-02 0.0000000e+00 
2.0998473e-03 -1.5426637e-02 0.0000000e+00 
-3.2879350e-03 -1.7544076e-02 0.0000000e+00 
-1.4655173e-03 -1.7596862e-02 0.0000000e+00 
3.5276384e-04 -1.7679863e-02 0.0000000e+00 
2.1696247e-03 -1.7793127e-02 0.0000000e+00 
-3.5777065e-03 -2.0032583e-02 0.0000000e+00 
-1.6410429e-03 -2.0096673e-02 0.0000000e+00 
2.9137333e-04 -2.0190417e-02 0.0000000e+00 
2.2222379e-03 -2.0313885e-02 0.0000000e+00 
-3.8789742e-03 -2.2671175e-02 0.0000000e+00 
-1.8301613e-03 -2.2747011e-02 0.0000000e+00 
2.1430237e-04 -2.2851945e-02 0.0000000e+00 
2.2570916e-03 -2.2986067e-02 0.0000000e+00 
-4.1923326e-03 -2.5457128e-02 0.0000000e+00 
-2.0334521e-03 -2.5545119e-02 0.0000000e+00 
1.2098632e-04 -2.5661656e-02 0.0000000e+00 
2.2736357e-03 -2.5806848e-02 0.0000000e+00 
-4.5183344e-03 -2.8387737e-02 0.0000000e+00 
-2.2514518e-03 -2.8488260e-02 0.0000000e+00 
1.0903969e-05 -2.8616781e-02 0.0000000e+00 
2.2713644e-03 -2.8773428e-02 0.0000000e+00 
-4.8574903e-03 -3.1460316e-02 0.0000000e+00 
-2.4846554e-03 -3.1573715e-02 0.0000000e+00 
-1.1642375e-04 -3.1714570e-02 0.0000000e+00 
2.2498141e-03 -3.1883027e-02 0.0000000e+00 
-5.2102711e-03 -3.4672197e-02 0.0000000e+00 
-2.7335176e-03 -3.4798789e-02 0.0000000e+00 
-2.6143500e-04 -3.4952299e-02 0.0000000e+00 
2.2085626e-03 -3.5132889e-02 0.0000000e+00 
-5.5771114e-03 -3.8020736e-02 0.0000000e+00 
-2.9984540e-03 -3.8160807e-02 0.0000000e+00 
-4.2452847e-04 -3.8327263e-02 0.0000000e+00 
2.1472285e-03 -3.8520282e-02 0.0000000e+00 
-5.9584058e-03 -4.1503309e-02 0.0000000e+00 
-3.2798425e-03 -4.1657117e-02 0.0000000e+00 
-6.0606475e-04 -4.1836782e-02 0.0000000e+00 
2.0654681e-03 -4.2042498e-02 0.0000000e+00 
-6.3545123e-03 -4.5117314e-02 0.0000000e+00 
-3.5780238e-03 -4.5285091e-02 0.0000000e+00 
-8.0636745e-04 -4.5478201e-02 0.0000000e+00 
1.9629744e-03 -4.5696853e-02 0.0000000e+00 
-6.7657546e-03 -4.8860170e-02 0.0000000e+00 
-3.8933030e-03 -4.9042120e-02 0.0000000e+00 
-1.0257247e-03 -4.9248885e-02 0.0000000e+00 
1.8394769e-03 -4.9480688e-02 0.0000000e+00 
-7.1924184e-03 -5.2729318e-02 0.0000000e+00 
-4.2259510e-03 -5.2925621e-02 0.0000000e+00 
-1.2643897e-03 -5.3146225e-02 0.0000000e+00 
1.6947384e-03 -5.3391368e-02 0.0000000e+00 
-7.6347602e-03 -5.6722220e-02 0.0000000e+00 
-4.5762048e-03 -5.6933031e-02 0.0000000e+00 
-1.5225823e-03 -5.7167634e-02 0.0000000e+00 
1.5285570e-03 -5.7426280e-02 0.0000000e+00 
-8.0930038e-03 -6.0836363e-02 0.0000000e+00 
-4.9442702e-03 -6.1061812e-02 0.0000000e+00 
-1.8004900e-03 -6.1310550e-02 0.0000000e+00 
1.3407629e-03 -6.1582840e-02 0.0000000e+00 
-8.5673430e-03 -6.5069253e-02 0.0000000e+00 
-5.3303221e-03 -6.5309449e-02 0.0000000e+00 
-2.0982694e-03 -6.5572436e-02 0.0000000e+00 
1.1312179e-03 -6.5858488e-02 0.0000000e+00 
-9.0579412e-03 -6.9418424e-02 0.0000000e+00 
-5.7345056e-03 -6.9673453e-02 0.0000000e+00 
-2.4160468e-03 -6.9950779e-02 0.0000000e+00 
8.9981366e-04 -7.0250689e-02 0.0000000e+00 
-9.5649345e-03 -7.3881429e-02 0.0000000e+00 
-6.1569372e-03 -7.4151356e-02 0.0000000e+00 
-2.7539203e-03 -7.4443092e-02 0.0000000e+00 
6.4647112e-04 -7.4756935e-02 0.0000000e+00 
-1.0088431e-02 -7.8455849e-02 0.0000000e+00 
-6.5977059e-03 -7.8740719e-02 0.0000000e+00 
-3.1119597e-03 -7.9046915e-02 0.0000000e+00 
3.7113881e-04 -7.9374745e-02 0.0000000e+00 
-1.0628511e-02 -8.3139287e-02 0.0000000e+00 
-7.0568742e-03 -8.3439124e-02 0.0000000e+00 
-3.4902085e-03 -8.3759810e-02 0.0000000e+00 
7.3792118e-05 -8.4101663e-02 0.0000000e+00 
-1.1185234e-02 -8.7929369e-02 0.0000000e+00 
-7.5344794e-03 -8.8244181e-02 0.0000000e+00 
-3.8886847e-03 -8.8579369e-02 0.0000000e+00 
-2.4556765e-04 -8.8935261e-02 0.0000000e+00 
-1.1758630e-02 -9.2823749e-02 0.0000000e+00 
-8.0305343e-03 -9.3153523e-02 0.0000000e+00 
-4.3073817e-03 -9.3503207e-02 0.0000000e+00 
-5.8691466e-04 -9.3873137e-02 0.0000000e+00 
-1.2348709e-02 -9.7820105e-02 0.0000000e+00 
-8.5450290e-03 -9.8164812e-02 0.0000000e+00 
-4.7462692e-03 -9.8528968e-02 0.0000000e+00 
-9.5019933e-04 -9.8912918e-02 0.0000000e+00 
-1.2955463e-02 -1.0291614e-01 0.0000000e+00 
-9.0779313e-03 -1.0327573e-01 0.0000000e+00 
-5.2052951e-03 -1.0365432e-01 0.0000000e+00 
-1.3353482e-03 -1.0405226e-01 0.0000000e+00 
-1.3578857e-02 -1.0810958e-01 0.0000000e+00 
-9.6291882e-03 -1.0848400e-01 0.0000000e+00 
-5.6843856e-03 -1.0887697e-01 0.0000000e+00 
-1.7422682e-03 -1.0928884e-01 0.0000000e+00 
-1.4218837e-02 -1.1339818e-01 0.0000000e+00 
-1.0198726e-02 -1.1378736e-01 0.0000000e+00 
-6.1834471e-03 -1.1419463e-01 0.0000000e+00 
-2.1708456e-03 -1.1462037e-01 0.0000000e+00 
-1.4875332e-02 -1.1877973e-01 0.0000000e+00 
-1.0786450e-02 -1.1918357e-01 0.0000000e+00 
-6.7023664e-03 -1.1960507e-01 0.0000000e+00 
-2.6209474e-03 -1.2004460e-01 0.0000000e+00 
-1.5548244e-02 -1.2425203e-01 0.0000000e+00 
-1.1392249e-02 -1.2467042e-01 0.0000000e+00 
-7.2410114e-03 -1.2510605e-01 0.0000000e+00 
-3.0924233e-03 -1.2555928e-01 0.0000000e+00 
-1.6237467e-02 -1.2981290e-01 0.0000000e+00 
-1.2015993e-02 -1.3024574e-01 0.0000000e+00 
-7.7992323e-03 -1.3069538e-01 0.0000000e+00 
-3.5851033e-03 -1.3116220e-01 0.0000000e+00 
-1.6942872e-02 -1.3546022e-01 0.0000000e+00 
-1.2657534e-02 -1.3590737e-01 0.0000000e+00 
-8.3768622e-03 -1.3637090e-01 0.0000000e+00 
-4.0988005e-03 -1.3685120e-01 0.0000000e+00 
-1.7664319e-02 -1.4119185e-01 0.0000000e+00 
-1.3316710e-02 -1.4165318e-01 0.0000000e+00 
-8.9737186e-03 -1.4213047e-01 0.0000000e+00 
-4.6333120e-03 -1.4262410e-01 0.0000000e+00 
-1.8401652e-02 -1.4700571e-01 0.0000000e+00 
-1.3993346e-02 -1.4748106e-01 0.0000000e+00 
-9.5896036e-03 -1.4797196e-01 0.0000000e+00 
-5.1884199e-03 -1.4847880e-01 0.0000000e+00 
-1.9154699e-02 -1.5289973e-01 0.0000000e+00 
-1.4687248e-02 -1.5338894e-01 0.0000000e+00 
-1.0224306e-02 -1.5389330e-01 0.0000000e+00 
-5.7638919e-03 -1.5441319e-01 0.0000000e+00 
-1.9923278e-02 -1.5887188e-01 0.0000000e+00 
-1.5398213e-02 -1.5937478e-01 0.0000000e+00 
-1.0877599e-02 -1.5989242e-01 0.0000000e+00 
-6.3594826e-03 -1.6042521e-01 0.0000000e+00 
-2.0707191e-02 -1.6492014e-01 0.0000000e+00 
-1.6126024e-02 -1.6543655e-01 0.0000000e+00 
-1.1549247e-02 -1.6596731e-01 0.0000000e+00 
-6.9749337e-03 -1.6651282e-01 0.0000000e+00 
-2.1506231e-02 -1.7104253e-01 0.0000000e+00 
-1.6870451e-02 -1.7157226e-01 0.0000000e+00 
-1.2239000e-02 -1.7211595e-01 0.0000000e+00 
-7.6099751e-03 -1.7267400e-01 0.0000000e+00 
-2.2320180e-02 -1.7723709e-01 0.0000000e+00 
-1.7631256e-02 -1.7777994e-01 0.0000000e+00 
-1.2946597e-02 -1.7833637e-01 0.0000000e+00 
-8.2643257e-03 -1.7890678e-01 0.0000000e+00 
-2.3148809e-02 -1.8350188e-01 0.0000000e+00 
-1.8408190e-02 -1.8405766e-01 0.0000000e+00 
-1.3671768e-02 -1.8462663e-01 0.0000000e+00 
-8.9376944e-03 -1.8520921e-01 0.0000000e+00 
-2.3991880e-02 -1.8983502e-01 0.0000000e+00 
-1.9200992e-02 -1.9040350e-01 0.0000000e+00 
-1.4414233e-02 -1.9098481e-01 0.0000000e+00 
-9.6297803e-03 -1.9157935e-01 0.0000000e+00 
-2.4849147e-02 -1.9623461e-01 0.0000000e+00 
-2.0009397e-02 -1.9681558e-01 0.0000000e+00 
-1.5173704e-02 -1.9740901e-01 0.0000000e+00 
-1.0340274e-02 -1.9801532e-01 0.0000000e+00 
-2.5720361e-02 -2.0269880e-01 0.0000000e+00 
-2.0833128e-02 -2.0329205e-01 0.0000000e+00 
-1.5949883e-02 -2.0389739e-01 0.0000000e+00 
-1.1068856e-02 -2.0451525e-01 0.0000000e+00 
-2.6605259e-02 -2.0922579e-01 0.0000000e+00 
-2.1671906e-02 -2.0983108e-01 0.0000000e+00 
-1.6742468e-02 -2.1044811e-01 0.0000000e+00 
-1.1815202e-02 -2.1107730e-01 0.0000000e+00 
-2.7503574e-02 -2.1581378e-01 0.0000000e+00 
-2.2525441e-02 -2.1643087e-01 0.0000000e+00 
-1.7551149e-02 -2.1705937e-01 0.0000000e+00 
-1.2578982e-02 -2.1769966e-01 0.0000000e+00 
-2.8415035e-02 -2.2246100e-01 0.0000000e+00 
-2.3393438e-02 -2.2308967e-01 0.0000000e+00 
-1.8375610e-02 -2.2372939e-01 0.0000000e+00 
-1.3359859e-02 -2.2438057e-01 0.0000000e+00 
-2.9339354e-02 -2.2916572e-01 0.0000000e+00 
-2.4275596e-02 -2.2980571e-01 0.0000000e+00 
-1.9215530e-02 -2.3045643e-01 0.0000000e+00 
-1.4157492e-02 -2.3111827e-01 0.0000000e+00 
-3.0276251e-02 -2.3592622e-01 0.0000000e+00 
-2.5171609e-02 -2.3657730e-01 0.0000000e+00 
-2.0070582e-02 -2.3723877e-01 0.0000000e+00 
-1.4971534e-02 -2.3791104e-01 0.0000000e+00 
-3.1225436e-02 -2.4274081e-01 0.0000000e+00 
-2.6081167e-02 -2.4340274e-01 0.0000000e+00 
-2.0940436e-02 -2.4407473e-01 0.0000000e+00 
-1.5801634e-02 -2.4475718e-01 0.0000000e+00 
-3.2186619e-02 -2.4960785e-01 0.0000000e+00 
-2.7003958e-02 -2.5028037e-01 0.0000000e+00 
-2.1824757e-02 -2.5096262e-01 0.0000000e+00 
-1.6647434e-02 -2.5165503e-01 0.0000000e+00 
-3.3159503e-02 -2.5652570e-01 0.0000000e+00 
-2.7939665e-02 -2.5720855e-01 0.0000000e+00 
-2.2723209e-02 -2.5790084e-01 0.0000000e+00 
-1.7508578e-02 -2.5860295e-01 0.0000000e+00 
-3.4143794e-02 -2.6349275e-01 0.0000000e+00 
-2.8887970e-02 -2.6418570e-01 0.0000000e+00 
-2.3635450e-02 -2.6488776e-01 0.0000000e+00 
-1.8384704e-02 -2.6559934e-01 0.0000000e+00 
-3.5139191e-02 -2.7050745e-01 0.0000000e+00 
-2.9848553e-02 -2.7121022e-01 0.0000000e+00 
-2.4561140e-02 -2.7192182e-01 0.0000000e+00 
-1.9275449e-02 -2.7264262e-01 0.0000000e+00 
-3.6145396e-02 -2.7756823e-01 0.0000000e+00 
-3.0821093e-02 -2.7828059e-01 0.0000000e+00 
-2.5499935e-02 -2.7900146e-01 0.0000000e+00 
-2.0180448e-02 -2.7973124e-01 0.0000000e+00 
-3.7162107e-02 -2.8467359e-01 0.0000000e+00 
-3.1805268e-02 -2.8539527e-01 0.0000000e+00 
-2.6451493e-02 -2.8612517e-01 0.0000000e+00 
-2.1099337e-02 -2.8686369e-01 0.0000000e+00 
-3.8189028e-02 -2.9182203e-01 0.0000000e+00 
-3.2800756e-02 -2.9255278e-01 0.0000000e+00 
-2.7415468e-02 -2.9329146e-01 0.0000000e+00 
-2.2031747e-02 -2.9403847e-01 0.0000000e+00 
-3.9225860e-02 -2.9901210e-01 0.0000000e+00 
-3.3807237e-02 -2.9975166e-01 0.0000000e+00 
-2.8391519e-02 -3.0049888e-01 0.0000000e+00 
-2.2977316e-02 -3.0125414e-01 0.0000000e+00 
-4.0272303e-02 -3.0624237e-01 0.0000000e+00 
-3.4824389e-02 -3.0699048e-01 0.0000000e+00 
-2.9379302e-02 -3.0774599e-01 0.0000000e+00 
-2.3935679e-02 -3.0850925e-01 0.0000000e+00 
-4.1328059e-02 -3.1351143e-01 0.0000000e+00 
-3.5851893e-02 -3.1426785e-01 0.0000000e+00 
-3.0378477e-02 -3.1503139e-01 0.0000000e+00 
-2.4906473e-02 -3.1580242e-01 0.0000000e+00 
-4.2392824e-02 -3.2081791e-01 0.0000000e+00 
-3.6889428e-02 -3.2158238e-01 0.0000000e+00 
-3.1388702e-02 -3.2235371e-01 0.0000000e+00 
-2.5889339e-02 -3.2313227e-01 0.0000000e+00 
-4.3466304e-02 -3.2816046e-01 0.0000000e+00 
-3.7936676e-02 -3.2893274e-01 0.0000000e+00 
-3.2409640e-02 -3.2971161e-01 0.0000000e+00 
-2.6883916e-02 -3.3049745e-01 0.0000000e+00 
-4.4548206e-02 -3.3553777e-01 0.0000000e+00 
-3.8993322e-02 -3.3631759e-01 0.0000000e+00 
-3.3440953e-02 -3.3710377e-01 0.0000000e+00 
-2.7889846e-02 -3.3789665e-01 0.0000000e+00 
-4.5638237e-02 -3.4294853e-01 0.0000000e+00 
-4.0059053e-02 -3.4373566e-01 0.0000000e+00 
-3.4482308e-02 -3.4452890e-01 0.0000000e+00 
-2.8906774e-02 -3.4532859e-01 0.0000000e+00 
-4.6736111e-02 -3.5039149e-01 0.0000000e+00 
-4.1133561e-02 -3.5118568e-01 0.0000000e+00 
-3.5533372e-02 -3.5198574e-01 0.0000000e+00 
-2.9934346e-02 -3.5279201e-01 0.0000000e+00 
-4.7841544e-02 -3.5786541e-01 0.0000000e+00 
-4.2216538e-02 -3.5866642e-01 0.0000000e+00 
-3.6593818e-02 -3.5947307e-01 0.0000000e+00 
-3.0972214e-02 -3.6028568e-01 0.0000000e+00 
-4.8954253e-02 -3.6536908e-01 0.0000000e+00 
-4.3307682e-02 -3.6617667e-01 0.0000000e+00 
-3.7663322e-02 -3.6698967e-01 0.0000000e+00 
-3.2020031e-02 -3.6780840e-01 0.0000000e+00 
-5.0073963e-02 -3.7290133e-01 0.0000000e+00 
-4.4406695e-02 -3.7371527e-01 0.0000000e+00 
-3.8741565e-02 -3.7453439e-01 0.0000000e+00 
-3.3077457e-02 -3.7535901e-01 0.0000000e+00 
-5.1200401e-02 -3.8046101e-01 0.0000000e+00 
-4.5513283e-02 -3.8128105e-01 0.0000000e+00 
-3.9828230e-02 -3.8210607e-01 0.0000000e+00 
-3.4144154e-02 -3.8293637e-01 0.0000000e+00 
-5.2333298e-02 -3.8804699e-01 0.0000000e+00 
-4.6627156e-02 -3.8887292e-01 0.0000000e+00 
-4.0923006e-02 -3.8970360e-01 0.0000000e+00 
-3.5219789e-02 -3.9053935e-01 0.0000000e+00 
-5.3472394e-02 -3.9565818e-01 0.0000000e+00 
-4.7748030e-02 -3.9648977e-01 0.0000000e+00 
-4.2025587e-02 -3.9732590e-01 0.0000000e+00 
-3.6304034e-02 -3.9816690e-01 0.0000000e+00 
-5.4617429e-02 -4.0329352e-01 0.0000000e+00 
-4.8875626e-02 -4.0413054e-01 0.0000000e+00 
-4.3135672e-02 -4.0497192e-01 0.0000000e+00 
-3.7396568e-02 -4.0581794e-01 0.0000000e+00 
-5.5768150e-02 -4.1095197e-01 0.0000000e+00 
-5.0009669e-02 -4.1179421e-01 0.0000000e+00 
-4.4252966e-02 -4.1264062e-01 0.0000000e+00 
-3.8497072e-02 -4.1349146e-01 0.0000000e+00 
-5.6924317e-02 -4.1863253e-01 0.0000000e+00 
-5.1149892e-02 -4.1947978e-01 0.0000000e+00 
-4.5377179e-02 -4.2033100e-01 0.0000000e+00 
-3.9605235e-02 -4.2118647e-01 0.0000000e+00 
-5.8085687e-02 -4.2633422e-01 0.0000000e+00 
-5.2296036e-02 -4.2718627e-01 0.0000000e+00 
-4.6508029e-02 -4.2804210e-01 0.0000000e+00 
-4.0720751e-02 -4.2890201e-01 0.0000000e+00 
-5.9252027e-02 -4.3405609e-01 0.0000000e+00 
-5.3447842e-02 -4.3491273e-01 0.0000000e+00 
-4.7645237e-02 -4.3577299e-01 0.0000000e+00 
-4.1843323e-02 -4.3663713e-01 0.0000000e+00 
-6.0423109e-02 -4.4179722e-01 0.0000000e+00 
-5.4605062e-02 -4.4265827e-01 0.0000000e+00 
-4.8788534e-02 -4.4352275e-01 0.0000000e+00 
-4.2972661e-02 -4.4439093e-01 0.0000000e+00 
-6.1598702e-02 -4.4955673e-01 0.0000000e+00 
-5.5767451e-02 -4.5042197e-01 0.0000000e+00 
-4.9937655e-02 -4.5129049e-01 0.0000000e+00 
-4.4108479e-02 -4.5216254e-01 0.0000000e+00 
-6.2778590e-02 -4.5733373e-01 0.0000000e+00 
-5.6934768e-02 -4.5820298e-01 0.0000000e+00 
-5.1092341e-02 -4.5907536e-01 0.0000000e+00 
-4.5250499e-02 -4.5995109e-01 0.0000000e+00 
-6.3962561e-02 -4.6512739e-01 0.0000000e+00 
-5.8106782e-02 -4.6600047e-01 0.0000000e+00 
-5.2252339e-02 -4.6687652e-01 0.0000000e+00 
-4.6398448e-02 -4.6775577e-01 0.0000000e+00 
-6.5150410e-02 -4.7293689e-01 0.0000000e+00 
-5.9283269e-02 -4.7381363e-01 0.0000000e+00 
-5.3417404e-02 -4.7469318e-01 0.0000000e+00 
-4.7552059e-02 -4.7557577e-01 0.0000000e+00 
-6.6341940e-02 -4.8076145e-01 0.0000000e+00 
-6.0464008e-02 -4.8164167e-01 0.0000000e+00 
-5.4587295e-02 -4.8252455e-01 0.0000000e+00 
-4.8711072e-02 -4.8341032e-01 0.0000000e+00 
-6.7536958e-02 -4.8860032e-01 0.0000000e+00 
-6.1648788e-02 -4.8948384e-01 0.0000000e+00 
-5.5761783e-02 -4.9036988e-01 0.0000000e+00 
-4.9875237e-02 -4.9125867e-01 0.0000000e+00 
-6.8735279e-02 -4.9645275e-01 0.0000000e+00 
-6.2837404e-02 -4.9733941e-01 0.0000000e+00 
-5.6940640e-02 -4.9822846e-01 0.0000000e+00 
-5.1044308e-02 -4.9912012e-01 0.0000000e+00 
-6.9936722e-02 -5.0431803e-01 0.0000000e+00 
-6.4029657e-02 -5.0520768e-01 0.0000000e+00 
-5.8123650e-02 -5.0609959e-01 0.0000000e+00 
-5.2218048e-02 -5.0699396e-01 0.0000000e+00 
-7.1141115e-02 -5.1219550e-01 0.0000000e+00 
-6.5225355e-02 -5.1308797e-01 0.0000000e+00 
-5.9310601e-02 -5.1398259e-01 0.0000000e+00 
-5.3396225e-02 -5.1487954e-01 0.0000000e+00 
-7.2348298e-02 -5.2008449e-01 0.0000000e+00 
-6.6424315e-02 -5.2097964e-01 0.0000000e+00 
-6.0501289e-02 -5.2187682e-01 0.0000000e+00 
-5.4578617e-02 -5.2277621e-01 0.0000000e+00 
-7.3558108e-02 -5.2798437e-01 0.0000000e+00 
-6.7626358e-02 -5.2888206e-01 0.0000000e+00 
-6.1695517e-02 -5.2978167e-01 0.0000000e+00 
-5.5765007e-02 -5.3068336e-01 0.0000000e+00 
-7.4770394e-02 -5.3589454e-01 0.0000000e+00 
-6.8831314e-02 -5.3679464e-01 0.0000000e+00 
-6.2893098e-02 -5.3769653e-01 0.0000000e+00 
-5.6955189e-02 -5.3860040e-01 0.0000000e+00 
-7.5985009e-02 -5.4381442e-01 0.0000000e+00 
-7.0039018e-02 -5.4471679e-01 0.0000000e+00 
-6.4093847e-02 -5.4562085e-01 0.0000000e+00 
-5.8148962e-02 -5.4652676e-01 0.0000000e+00 
-7.7201805e-02 -5.5174345e-01 0.0000000e+00 
-7.1249309e-02 -5.5264796e-01 0.0000000e+00 
-6.5297590e-02 -5.5355406e-01 0.0000000e+00 
-5.9346136e-02 -5.5446191e-01 0.0000000e+00 
-7.8420646e-02 -5.5968110e-01 0.0000000e+00 
-7.2462033e-02 -5.6058763e-01 0.0000000e+00 
-6.6504156e-02 -5.6149565e-01 0.0000000e+00 
-6.0546524e-02 -5.6240531e-01 0.0000000e+00 
-7.9641403e-02 -5.6762685e-01 0.0000000e+00 
-7.3677044e-02 -5.6853528e-01 0.0000000e+00 
-6.7713381e-02 -5.6944510e-01 0.0000000e+00 
-6.1749944e-02 -5.7035648e-01 0.0000000e+00 
-8.0863950e-02 -5.7558021e-01 0.0000000e+00 
-7.4894200e-02 -5.7649042e-01 0.0000000e+00 
-6.8925108e-02 -5.7740194e-01 0.0000000e+00 
-6.2956224e-02 -5.7831492e-01 0.0000000e+00 
-8.2088170e-02 -5.8354071e-01 0.0000000e+00 
-7.6113368e-02 -5.8445259e-01 0.0000000e+00 
-7.0139186e-02 -5.8536571e-01 0.0000000e+00 
-6.4165196e-02 -5.8628019e-01 0.0000000e+00 
-8.3313948e-02 -5.9150789e-01 0.0000000e+00 
-7.7334417e-02 -5.9242135e-01 0.0000000e+00 
-7.1355471e-02 -5.9333596e-01 0.0000000e+00 
-6.5376701e-02 -5.9425184e-01 0.0000000e+00 
-8.4541177e-02 -5.9948133e-01 0.0000000e+00 
-7.8557226e-02 -6.0039626e-01 0.0000000e+00 
-7.2573825e-02 -6.0131227e-01 0.0000000e+00 
-6.6590585e-02 -6.0222946e-01 0.0000000e+00 
-8.5769757e-02 -6.0746062e-01 0.0000000e+00 
-7.9781678e-02 -6.0837693e-01 0.0000000e+00 
-7.3794116e-02 -6.0929424e-01 0.0000000e+00 
-6.7806701e-02 -6.1021267e-01 0.0000000e+00 
-8.6999587e-02 -6.1544538e-01 0.0000000e+00 
-8.1007660e-02 -6.1636298e-01 0.0000000e+00 
-7.5016219e-02 -6.1728150e-01 0.0000000e+00 
-6.9024911e-02 -6.1820107e-01 0.0000000e+00 
-8.8230578e-02 -6.2343523e-01 0.0000000e+00 
-8.2235068e-02 -6.2435402e-01 0.0000000e+00 
-7.6240013e-02 -6.2527369e-01 0.0000000e+00 
-7.0245080e-02 -6.2619432e-01 0.0000000e+00 
-8.9462639e-02 -6.3142981e-01 0.0000000e+00 
-8.3463799e-02 -6.3234973e-01 0.0000000e+00 
-7.7465384e-02 -6.3327045e-01 0.0000000e+00 
-7.1467081e-02 -6.3419207e-01 0.0000000e+00 