# vtk DataFile Version 4.0
vtk output
ASCII
DATASET UNSTRUCTURED_GRID
POINTS 604 float
5.5000000e+00 5.9700000e+00 0.0000000e+00 
5.5000000e+00 5.9900000e+00 0.0000000e+00 
5.5266667e+00 5.9700000e+00 0.0000000e+00 
5.5266667e+00 5.9900000e+00 0.0000000e+00 
5.5000000e+00 6.0100000e+00 0.0000000e+00 
5.5266667e+00 6.0100000e+00 0.0000000e+00 
5.5533333e+00 5.9700000e+00 0.0000000e+00 
5.5533333e+00 5.9900000e+00 0.0000000e+00 
5.5000000e+00 6.0300000e+00 0.0000000e+00 
5.5266667e+00 6.0300000e+00 0.0000000e+00 
5.5533333e+00 6.0100000e+00 0.0000000e+00 
5.5800000e+00 5.9700000e+00 0.0000000e+00 
5.5533333e+00 6.0300000e+00 0.0000000e+00 
5.5800000e+00 5.9900000e+00 0.0000000e+00 
5.5800000e+00 6.0100000e+00 0.0000000e+00 
5.5800000e+00 6.0300000e+00 0.0000000e+00 
5.6066667e+00 5.9700000e+00 0.0000000e+00 
5.6066667e+00 5.9900000e+00 0.0000000e+00 
5.6066667e+00 6.0100000e+00 0.0000000e+00 
5.6066667e+00 6.0300000e+00 0.0000000e+00 
5.6333333e+00 5.9700000e+00 0.0000000e+00 
5.6333333e+00 5.9900000e+00 0.0000000e+00 
5.6333333e+00 6.0100000e+00 0.0000000e+00 
5.6333333e+00 6.0300000e+00 0.0000000e+00 
5.6600000e+00 5.9700000e+00 0.0000000e+00 
5.6600000e+00 5.9900000e+00 0.0000000e+00 
5.6600000e+00 6.0100000e+00 0.0000000e+00 
5.6600000e+00 6.0300000e+00 0.0000000e+00 
5.6866667e+00 5.9700000e+00 0.0000000e+00 
5.6866667e+00 5.9900000e+00 0.0000000e+00 
5.6866667e+00 6.0100000e+00 0.0000000e+00 
5.6866667e+00 6.0300000e+00 0.0000000e+00 
5.7133333e+00 5.9700000e+00 0.0000000e+00 
5.7133333e+00 5.9900000e+00 0.0000000e+00 
5.7133333e+00 6.0100000e+00 0.0000000e+00 
5.7133333e+00 6.0300000e+00 0.0000000e+00 
5.7400000e+00 5.9700000e+00 0.0000000e+00 
5.7400000e+00 5.9900000e+00 0.0000000e+00 
5.7400000e+00 6.0100000e+00 0.0000000e+00 
5.7400000e+00 6.0300000e+00 0.0000000e+00 
5.7666667e+00 5.9700000e+00 0.0000000e+00 
5.7666667e+00 5.9900000e+00 0.0000000e+00 
5.7666667e+00 6.0100000e+00 0.0000000e+00 
5.7666667e+00 6.0300000e+00 0.0000000e+00 
5.7933333e+00 5.9700000e+00 0.0000000e+00 
5.7933333e+00 5.9900000e+00 0.0000000e+00 
5.7933333e+00 6.0100000e+00 0.0000000e+00 
5.7933333e+00 6.0300000e+00 0.0000000e+00 
5.8200000e+00 5.9700000e+00 0.0000000e+00 
5.8200000e+00 5.9900000e+00 0.0000000e+00 
5.8200000e+00 6.0100000e+00 0.0000000e+00 
5.8200000e+00 6.0300000e+00 0.0000000e+00 
5.8466667e+00 5.9700000e+00 0.0000000e+00 
5.8466667e+00 5.9900000e+00 0.0000000e+00 
5.8466667e+00 6.0100000e+00 0.0000000e+00 
5.8466667e+00 6.0300000e+00 0.0000000e+00 
5.8733333e+00 5.9700000e+00 0.0000000e+00 
5.8733333e+00 5.9900000e+00 0.0000000e+00 
5.8733333e+00 6.0100000e+00 0.0000000e+00 
5.8733333e+00 6.0300000e+00 0.0000000e+00 
5.9000000e+00 5.9700000e+00 0.0000000e+00 
5.9000000e+00 5.9900000e+00 0.0000000e+00 
5.9000000e+00 6.0100000e+00 0.0000000e+00 
5.9000000e+00 6.0300000e+00 0.0000000e+00 
5.9266667e+00 5.9700000e+00 0.0000000e+00 
5.9266667e+00 5.9900000e+00 0.0000000e+00 
5.9266667e+00 6.0100000e+00 0.0000000e+00 
5.9266667e+00 6.0300000e+00 0.0000000e+00 
5.9533333e+00 5.9700000e+00 0.0000000e+00 
5.9533333e+00 5.9900000e+00 0.0000000e+00 
5.9533333e+00 6.0100000e+00 0.0000000e+00 
5.9533333e+00 6.0300000e+00 0.0000000e+00 
5.9800000e+00 5.9700000e+00 0.0000000e+00 
5.9800000e+00 5.9900000e+00 0.0000000e+00 
5.9800000e+00 6.0100000e+00 0.0000000e+00 
5.9800000e+00 6.0300000e+00 0.0000000e+00 
6.0066667e+00 5.9700000e+00 0.0000000e+00 
6.0066667e+00 5.9900000e+00 0.0000000e+00 
6.0066667e+00 6.0100000e+00 0.0000000e+00 
6.0066667e+00 6.0300000e+00 0.0000000e+00 
6.0333333e+00 5.9700000e+00 0.0000000e+00 
6.0333333e+00 5.9900000e+00 0.0000000e+00 
6.0333333e+00 6.0100000e+00 0.0000000e+00 
6.0333333e+00 6.0300000e+00 0.0000000e+00 
6.0600000e+00 5.9700000e+00 0.0000000e+00 
6.0600000e+00 5.9900000e+00 0.0000000e+00 
6.0600000e+00 6.0100000e+00 0.0000000e+00 
6.0600000e+00 6.0300000e+00 0.0000000e+00 
6.0866667e+00 5.9700000e+00 0.0000000e+00 
6.0866667e+00 5.9900000e+00 0.0000000e+00 
6.0866667e+00 6.0100000e+00 0.0000000e+00 
6.0866667e+00 6.0300000e+00 0.0000000e+00 
6.1133333e+00 5.9700000e+00 0.0000000e+00 
6.1133333e+00 5.9900000e+00 0.0000000e+00 
6.1133333e+00 6.0100000e+00 0.0000000e+00 
6.1133333e+00 6.0300000e+00 0.0000000e+00 
6.1400000e+00 5.9700000e+00 0.0000000e+00 
6.1400000e+00 5.9900000e+00 0.0000000e+00 
6.1400000e+00 6.0100000e+00 0.0000000e+00 
6.1400000e+00 6.0300000e+00 0.0000000e+00 
6.1666667e+00 5.9700000e+00 0.0000000e+00 
6.1666667e+00 5.9900000e+00 0.0000000e+00 
6.1666667e+00 6.0100000e+00 0.0000000e+00 
6.1666667e+00 6.0300000e+00 0.0000000e+00 
6.1933333e+00 5.9700000e+00 0.0000000e+00 
6.1933333e+00 5.9900000e+00 0.0000000e+00 
6.1933333e+00 6.0100000e+00 0.0000000e+00 
6.1933333e+00 6.0300000e+00 0.0000000e+00 
6.2200000e+00 5.9700000e+00 0.0000000e+00 
6.2200000e+00 5.9900000e+00 0.0000000e+00 
6.2200000e+00 6.0100000e+00 0.0000000e+00 
6.2200000e+00 6.0300000e+00 0.0000000e+00 
6.2466667e+00 5.9700000e+00 0.0000000e+00 
6.2466667e+00 5.9900000e+00 0.0000000e+00 
6.2466667e+00 6.0100000e+00 0.0000000e+00 
6.2466667e+00 6.0300000e+00 0.0000000e+00 
6.2733333e+00 5.9700000e+00 0.0000000e+00 
6.2733333e+00 5.9900000e+00 0.0000000e+00 
6.2733333e+00 6.0100000e+00 0.0000000e+00 
6.2733333e+00 6.0300000e+00 0.0000000e+00 
6.3000000e+00 5.9700000e+00 0.0000000e+00 
6.3000000e+00 5.9900000e+00 0.0000000e+00 
6.3000000e+00 6.0100000e+00 0.0000000e+00 
6.3000000e+00 6.0300000e+00 0.0000000e+00 
6.3266667e+00 5.9700000e+00 0.0000000e+00 
6.3266667e+00 5.9900000e+00 0.0000000e+00 
6.3266667e+00 6.0100000e+00 0.0000000e+00 
6.3266667e+00 6.0300000e+00 0.0000000e+00 
6.3533333e+00 5.9700000e+00 0.0000000e+00 
6.3533333e+00 5.9900000e+00 0.0000000e+00 
6.3533333e+00 6.0100000e+00 0.0000000e+00 
6.3533333e+00 6.0300000e+00 0.0000000e+00 
6.3800000e+00 5.9700000e+00 0.0000000e+00 
6.3800000e+00 5.9900000e+00 0.0000000e+00 
6.3800000e+00 6.0100000e+00 0.0000000e+00 
6.3800000e+00 6.0300000e+00 0.0000000e+00 
6.4066667e+00 5.9700000e+00 0.0000000e+00 
6.4066667e+00 5.9900000e+00 0.0000000e+00 
6.4066667e+00 6.0100000e+00 0.0000000e+00 
6.4066667e+00 6.0300000e+00 0.0000000e+00 
6.4333333e+00 5.9700000e+00 0.0000000e+00 
6.4333333e+00 5.9900000e+00 0.0000000e+00 
6.4333333e+00 6.0100000e+00 0.0000000e+00 
6.4333333e+00 6.0300000e+00 0.0000000e+00 
6.4600000e+00 5.9700000e+00 0.0000000e+00 
6.4600000e+00 5.9900000e+00 0.0000000e+00 
6.4600000e+00 6.0100000e+00 0.0000000e+00 
6.4600000e+00 6.0300000e+00 0.0000000e+00 
6.4866667e+00 5.9700000e+00 0.0000000e+00 
6.4866667e+00 5.9900000e+00 0.0000000e+00 
6.4866667e+00 6.0100000e+00 0.0000000e+00 
6.4866667e+00 6.0300000e+00 0.0000000e+00 
6.5133333e+00 5.9700000e+00 0.0000000e+00 
6.5133333e+00 5.9900000e+00 0.0000000e+00 
6.5133333e+00 6.0100000e+00 0.0000000e+00 
6.5133333e+00 6.0300000e+00 0.0000000e+00 
6.5400000e+00 5.9700000e+00 0.0000000e+00 
6.5400000e+00 5.9900000e+00 0.0000000e+00 
6.5400000e+00 6.0100000e+00 0.0000000e+00 
6.5400000e+00 6.0300000e+00 0.0000000e+00 
6.5666667e+00 5.9700000e+00 0.0000000e+00 
6.5666667e+00 5.9900000e+00 0.0000000e+00 
6.5666667e+00 6.0100000e+00 0.0000000e+00 
6.5666667e+00 6.0300000e+00 0.0000000e+00 
6.5933333e+00 5.9700000e+00 0.0000000e+00 
6.5933333e+00 5.9900000e+00 0.0000000e+00 
6.5933333e+00 6.0100000e+00 0.0000000e+00 
6.5933333e+00 6.0300000e+00 0.0000000e+00 
6.6200000e+00 5.9700000e+00 0.0000000e+00 
6.6200000e+00 5.9900000e+00 0.0000000e+00 
6.6200000e+00 6.0100000e+00 0.0000000e+00 
6.6200000e+00 6.0300000e+00 0.0000000e+00 
6.6466667e+00 5.9700000e+00 0.0000000e+00 
6.6466667e+00 5.9900000e+00 0.0000000e+00 
6.6466667e+00 6.0100000e+00 0.0000000e+00 
6.6466667e+00 6.0300000e+00 0.0000000e+00 
6.6733333e+00 5.9700000e+00 0.0000000e+00 
6.6733333e+00 5.9900000e+00 0.0000000e+00 
6.6733333e+00 6.0100000e+00 0.0000000e+00 
6.6733333e+00 6.0300000e+00 0.0000000e+00 
6.7000000e+00 5.9700000e+00 0.0000000e+00 
6.7000000e+00 5.9900000e+00 0.0000000e+00 
6.7000000e+00 6.0100000e+00 0.0000000e+00 
6.7000000e+00 6.0300000e+00 0.0000000e+00 
6.7266667e+00 5.9700000e+00 0.0000000e+00 
6.7266667e+00 5.9900000e+00 0.0000000e+00 
6.7266667e+00 6.0100000e+00 0.0000000e+00 
6.7266667e+00 6.0300000e+00 0.0000000e+00 
6.7533333e+00 5.9700000e+00 0.0000000e+00 
6.7533333e+00 5.9900000e+00 0.0000000e+00 
6.7533333e+00 6.0100000e+00 0.0000000e+00 
6.7533333e+00 6.0300000e+00 0.0000000e+00 
6.7800000e+00 5.9700000e+00 0.0000000e+00 
6.7800000e+00 5.9900000e+00 0.0000000e+00 
6.7800000e+00 6.0100000e+00 0.0000000e+00 
6.7800000e+00 6.0300000e+00 0.0000000e+00 
6.8066667e+00 5.9700000e+00 0.0000000e+00 
6.8066667e+00 5.9900000e+00 0.0000000e+00 
6.8066667e+00 6.0100000e+00 0.0000000e+00 
6.8066667e+00 6.0300000e+00 0.0000000e+00 
6.8333333e+00 5.9700000e+00 0.0000000e+00 
6.8333333e+00 5.9900000e+00 0.0000000e+00 
6.8333333e+00 6.0100000e+00 0.0000000e+00 
6.8333333e+00 6.0300000e+00 0.0000000e+00 
6.8600000e+00 5.9700000e+00 0.0000000e+00 
6.8600000e+00 5.9900000e+00 0.0000000e+00 
6.8600000e+00 6.0100000e+00 0.0000000e+00 
6.8600000e+00 6.0300000e+00 0.0000000e+00 
6.8866667e+00 5.9700000e+00 0.0000000e+00 
6.8866667e+00 5.9900000e+00 0.0000000e+00 
6.8866667e+00 6.0100000e+00 0.0000000e+00 
6.8866667e+00 6.0300000e+00 0.0000000e+00 
6.9133333e+00 5.9700000e+00 0.0000000e+00 
6.9133333e+00 5.9900000e+00 0.0000000e+00 
6.9133333e+00 6.0100000e+00 0.0000000e+00 
6.9133333e+00 6.0300000e+00 0.0000000e+00 
6.9400000e+00 5.9700000e+00 0.0000000e+00 
6.9400000e+00 5.9900000e+00 0.0000000e+00 
6.9400000e+00 6.0100000e+00 0.0000000e+00 
6.9400000e+00 6.0300000e+00 0.0000000e+00 
6.9666667e+00 5.9700000e+00 0.0000000e+00 
6.9666667e+00 5.9900000e+00 0.0000000e+00 
6.9666667e+00 6.0100000e+00 0.0000000e+00 
6.9666667e+00 6.0300000e+00 0.0000000e+00 
6.9933333e+00 5.9700000e+00 0.0000000e+00 
6.9933333e+00 5.9900000e+00 0.0000000e+00 
6.9933333e+00 6.0100000e+00 0.0000000e+00 
6.9933333e+00 6.0300000e+00 0.0000000e+00 
7.0200000e+00 5.9700000e+00 0.0000000e+00 
7.0200000e+00 5.9900000e+00 0.0000000e+00 
[...]
POINT_DATA 604
FIELD FieldData 2
DISPLACEMENT 3 604  float
0.0000000e+00 0.0000000e+00 0.0000000e+00 
0.0000000e+00 0.0000000e+00 0.0000000e+00 
-2.9814768e-07 -1.8780759e-07 0.0000000e+00 
-9.3474922e-08 -1.0790313e-07 0.0000000e+00 
0.0000000e+00 0.0000000e+00 0.0000000e+00 
9.8364774e-08 -9.3547060e-08 0.0000000e+00 
-6.1279129e-07 -5.7636136e-07 0.0000000e+00 
-2.0712309e-07 -5.0609267e-07 0.0000000e+00 
0.0000000e+00 0.0000000e+00 0.0000000e+00 
2.9286524e-07 -1.4006917e-07 0.0000000e+00 
2.0298201e-07 -4.8895240e-07 0.0000000e+00 
-9.3763845e-07 -1.2556835e-06 0.0000000e+00 
6.0718638e-07 -5.2761991e-07 0.0000000e+00 
-3.1723755e-07 -1.1826761e-06 0.0000000e+00 
3.0610643e-07 -1.1666373e-06 0.0000000e+00 
9.2720624e-07 -1.2073797e-06 0.0000000e+00 
-1.2696324e-06 -2.2244530e-06 0.0000000e+00 
-4.2992060e-07 -2.1506791e-06 0.0000000e+00 
4.1243487e-07 -2.1346525e-06 0.0000000e+00 
1.2525353e-06 -2.1764683e-06 0.0000000e+00 
-1.6072409e-06 -3.4893639e-06 0.0000000e+00 
-5.4461128e-07 -3.4143936e-06 0.0000000e+00 
5.2027384e-07 -3.3981775e-06 0.0000000e+00 
1.5833179e-06 -3.4406140e-06 0.0000000e+00 
-1.9498154e-06 -5.0539372e-06 0.0000000e+00 
-6.6112598e-07 -4.9782369e-06 0.0000000e+00 
6.2939861e-07 -4.9619097e-06 0.0000000e+00 
1.9184454e-06 -5.0050792e-06 0.0000000e+00 
-2.2964361e-06 -6.9227712e-06 0.0000000e+00 
-7.7923473e-07 -6.8460606e-06 0.0000000e+00 
7.3945482e-07 -6.8294525e-06 0.0000000e+00 
2.2570651e-06 -6.8728211e-06 0.0000000e+00 
-2.6463411e-06 -9.0977455e-06 0.0000000e+00 
-8.9864463e-07 -9.0206195e-06 0.0000000e+00 
8.5016204e-07 -9.0039034e-06 0.0000000e+00 
2.5982454e-06 -9.0477171e-06 0.0000000e+00 
-2.9987273e-06 -1.1582186e-05 0.0000000e+00 
-1.0190840e-06 -1.1504300e-05 0.0000000e+00 
9.6123824e-07 -1.1487293e-05 0.0000000e+00 
2.9411413e-06 -1.1530995e-05 0.0000000e+00 
-3.3526515e-06 -1.4376334e-05 0.0000000e+00 
-1.1402842e-06 -1.4298332e-05 0.0000000e+00 
1.0724333e-06 -1.4281215e-05 0.0000000e+00 
3.2850240e-06 -1.4325109e-05 0.0000000e+00 
-3.7074734e-06 -1.7482142e-05 0.0000000e+00 
-1.2619310e-06 -1.7403685e-05 0.0000000e+00 
1.1835015e-06 -1.7386280e-05 0.0000000e+00 
3.6290784e-06 -1.7429737e-05 0.0000000e+00 
-4.0621958e-06 -2.0898585e-05 0.0000000e+00 
-1.3837530e-06 -2.0820310e-05 0.0000000e+00 
1.2942157e-06 -2.0802817e-05 0.0000000e+00 
3.9726387e-06 -2.0846229e-05 0.0000000e+00 
-4.4161777e-06 -2.4626278e-05 0.0000000e+00 
-1.5054270e-06 -2.4547819e-05 0.0000000e+00 
1.4043556e-06 -2.4530032e-05 0.0000000e+00 
4.3148140e-06 -2.4572709e-05 0.0000000e+00 
-4.7683579e-06 -2.8662671e-05 0.0000000e+00 
-1.6266406e-06 -2.8584714e-05 0.0000000e+00 
1.5136960e-06 -2.8566912e-05 0.0000000e+00 
4.6550377e-06 -2.8609295e-05 0.0000000e+00 
-5.1181605e-06 -3.3007031e-05 0.0000000e+00 
-1.7469871e-06 -3.2929248e-05 0.0000000e+00 
1.6221100e-06 -3.2911144e-05 0.0000000e+00 
4.9922286e-06 -3.2952616e-05 0.0000000e+00 
-5.4643936e-06 -3.7656099e-05 0.0000000e+00 
-1.8663506e-06 -3.7578571e-05 0.0000000e+00 
1.7291521e-06 -3.7560052e-05 0.0000000e+00 
5.3259422e-06 -3.7600373e-05 0.0000000e+00 
-5.8060520e-06 -4.2605415e-05 0.0000000e+00 
-1.9841549e-06 -4.2528920e-05 0.0000000e+00 
1.8348367e-06 -4.2510475e-05 0.0000000e+00 
5.6555289e-06 -4.2550159e-05 0.0000000e+00 
-6.1425449e-06 -4.7852224e-05 0.0000000e+00 
-2.0999261e-06 -4.7776397e-05 0.0000000e+00 
1.9390886e-06 -4.7757809e-05 0.0000000e+00 
5.9798287e-06 -4.7796191e-05 0.0000000e+00 
-6.4723438e-06 -5.3390184e-05 0.0000000e+00 
-2.2133480e-06 -5.3315749e-05 0.0000000e+00 
2.0416627e-06 -5.3297265e-05 0.0000000e+00 
6.2987407e-06 -5.3334796e-05 0.0000000e+00 
-6.7949484e-06 -5.9214649e-05 0.0000000e+00 
-2.3238640e-06 -5.9141437e-05 0.0000000e+00 
2.1424727e-06 -5.9122949e-05 0.0000000e+00 
6.6110287e-06 -5.9158955e-05 0.0000000e+00 
-7.1086981e-06 -6.5318314e-05 0.0000000e+00 
-2.4310831e-06 -6.5246901e-05 0.0000000e+00 
2.2412533e-06 -6.5228618e-05 0.0000000e+00 
6.9162746e-06 -6.5263485e-05 0.0000000e+00 
-7.4128438e-06 -7.1694543e-05 0.0000000e+00 
-2.5344666e-06 -7.1624797e-05 0.0000000e+00 
2.3378921e-06 -7.1606590e-05 0.0000000e+00 
7.2130299e-06 -7.1639756e-05 0.0000000e+00 
-7.7057289e-06 -7.8334024e-05 0.0000000e+00 
-2.6335871e-06 -7.8266502e-05 0.0000000e+00 
2.4320751e-06 -7.8248650e-05 0.0000000e+00 
7.5010722e-06 -7.8280351e-05 0.0000000e+00 
-7.9866809e-06 -8.5227714e-05 0.0000000e+00 
-2.7276840e-06 -8.5162731e-05 0.0000000e+00 
2.5238457e-06 -8.5145340e-05 0.0000000e+00 
7.7787498e-06 -8.5175433e-05 0.0000000e+00 
-8.2535035e-06 -9.2365468e-05 0.0000000e+00 
-2.8163171e-06 -9.2303166e-05 0.0000000e+00 
2.6128631e-06 -9.2286229e-05 0.0000000e+00 
8.0459363e-06 -9.2314506e-05 0.0000000e+00 
-8.5053982e-06 -9.9735304e-05 0.0000000e+00 
-2.8987895e-06 -9.9676259e-05 0.0000000e+00 
2.6990268e-06 -9.9659957e-05 0.0000000e+00 
8.3009850e-06 -9.9686454e-05 0.0000000e+00 
-8.7405554e-06 -1.0732556e-04 0.0000000e+00 
-2.9746042e-06 -1.0726969e-04 0.0000000e+00 
2.7819533e-06 -1.0725403e-04 0.0000000e+00 
8.5433538e-06 -1.0727829e-04 0.0000000e+00 
-8.9580086e-06 -1.1512146e-04 0.0000000e+00 
-3.0430716e-06 -1.1506956e-04 0.0000000e+00 
2.8616706e-06 -1.1505488e-04 0.0000000e+00 
8.7712483e-06 -1.1507756e-04 0.0000000e+00 
-9.1558842e-06 -1.2310945e-04 0.0000000e+00 
-3.1038118e-06 -1.2306115e-04 0.0000000e+00 
2.9377954e-06 -1.2304715e-04 0.0000000e+00 
8.9847670e-06 -1.2306727e-04 0.0000000e+00 
-9.3335368e-06 -1.3127175e-04 0.0000000e+00 
-3.1561061e-06 -1.3122826e-04 0.0000000e+00 
3.0102841e-06 -1.3121588e-04 0.0000000e+00 
9.1825874e-06 -1.3123432e-04 0.0000000e+00 
-9.4894577e-06 -1.3959291e-04 0.0000000e+00 
-3.1990683e-06 -1.3955466e-04 0.0000000e+00 
3.0796298e-06 -1.3954402e-04 0.0000000e+00 
9.3638795e-06 -1.3956132e-04 0.0000000e+00 
-9.6226510e-06 -1.4805737e-04 0.0000000e+00 
-3.2328085e-06 -1.4802312e-04 0.0000000e+00 
3.1452474e-06 -1.4801347e-04 0.0000000e+00 
9.5289864e-06 -1.4802778e-04 0.0000000e+00 
-9.7331587e-06 -1.5664353e-04 0.0000000e+00 
-3.2568428e-06 -1.5661524e-04 0.0000000e+00 
3.2073071e-06 -1.5660749e-04 0.0000000e+00 
9.6772087e-06 -1.5662091e-04 0.0000000e+00 
-9.8200434e-06 -1.6533807e-04 0.0000000e+00 
-3.2710531e-06 -1.6531386e-04 0.0000000e+00 
3.2657577e-06 -1.6530728e-04 0.0000000e+00 
9.8084389e-06 -1.6531758e-04 0.0000000e+00 
-9.8833806e-06 -1.7411791e-04 0.0000000e+00 
-3.2752402e-06 -1.7409993e-04 0.0000000e+00 
3.3207811e-06 -1.7409545e-04 0.0000000e+00 
9.9224325e-06 -1.7410524e-04 0.0000000e+00 
-9.9232226e-06 -1.8296990e-04 0.0000000e+00 
-3.2694639e-06 -1.8295591e-04 0.0000000e+00 
3.3724297e-06 -1.8295268e-04 0.0000000e+00 
1.0019827e-05 -1.8295939e-04 0.0000000e+00 
-9.9400921e-06 -1.9187067e-04 0.0000000e+00 
-3.2537044e-06 -1.9186306e-04 0.0000000e+00 
3.4209887e-06 -1.9186214e-04 0.0000000e+00 
1.0100957e-05 -1.9186878e-04 0.0000000e+00 
-9.9343047e-06 -2.0080865e-04 0.0000000e+00 
-3.2282065e-06 -2.0080476e-04 0.0000000e+00 
3.4666822e-06 -2.0080512e-04 0.0000000e+00 
1.0166408e-05 -2.0080888e-04 0.0000000e+00 
-9.9067982e-06 -2.0976078e-04 0.0000000e+00 
-3.1931267e-06 -2.0976325e-04 0.0000000e+00 
3.5097110e-06 -2.0976596e-04 0.0000000e+00 
1.0217169e-05 -2.0976985e-04 0.0000000e+00 
-9.8583447e-06 -2.1871786e-04 0.0000000e+00 
-3.1488021e-06 -2.1872370e-04 0.0000000e+00 
3.5503794e-06 -2.1872771e-04 0.0000000e+00 
1.0253799e-05 -2.1872900e-04 0.0000000e+00 
-9.7898453e-06 -2.2765787e-04 0.0000000e+00 
-3.0955247e-06 -2.2766985e-04 0.0000000e+00 
3.5889821e-06 -2.2767627e-04 0.0000000e+00 
1.0277365e-05 -2.2767812e-04 0.0000000e+00 
-9.7024928e-06 -2.3657355e-04 0.0000000e+00 
-3.0336543e-06 -2.3658851e-04 0.0000000e+00 
3.6258288e-06 -2.3659621e-04 0.0000000e+00 
1.0288739e-05 -2.3659577e-04 0.0000000e+00 
-9.5971580e-06 -2.4544459e-04 0.0000000e+00 
-2.9636311e-06 -2.4546523e-04 0.0000000e+00 
3.6611550e-06 -2.4547527e-04 0.0000000e+00 
1.0289116e-05 -2.4547566e-04 0.0000000e+00 
-9.4751356e-06 -2.5426542e-04 0.0000000e+00 
-2.8858985e-06 -2.5428867e-04 0.0000000e+00 
3.6952323e-06 -2.5429977e-04 0.0000000e+00 
1.0279167e-05 -2.5429824e-04 0.0000000e+00 
-9.3370960e-06 -2.6301753e-04 0.0000000e+00 
-2.8010241e-06 -2.6304588e-04 0.0000000e+00 
3.7281491e-06 -2.6305962e-04 0.0000000e+00 
1.0260444e-05 -2.6305897e-04 0.0000000e+00 
-9.1848000e-06 -2.7169413e-04 0.0000000e+00 
-2.7084614e-06 -2.7172716e-04 0.0000000e+00 
3.7611706e-06 -2.7174354e-04 0.0000000e+00 
1.0233198e-05 -2.7174378e-04 0.0000000e+00 
-9.0193112e-06 -2.8028874e-04 0.0000000e+00 
-2.6097100e-06 -2.8032376e-04 0.0000000e+00 
3.7934959e-06 -2.8034102e-04 0.0000000e+00 
1.0198497e-05 -2.8033983e-04 0.0000000e+00 
-8.8414860e-06 -2.8878623e-04 0.0000000e+00 
-2.5052607e-06 -2.8882555e-04 0.0000000e+00 
3.8252761e-06 -2.8884475e-04 0.0000000e+00 
1.0157509e-05 -2.8884470e-04 0.0000000e+00 
-8.6529619e-06 -2.9718489e-04 0.0000000e+00 
-2.3954140e-06 -2.9722578e-04 0.0000000e+00 
3.8568541e-06 -2.9724594e-04 0.0000000e+00 
1.0110426e-05 -2.9724470e-04 0.0000000e+00 
-8.4543262e-06 -3.0547183e-04 0.0000000e+00 
-2.2806923e-06 -3.0551651e-04 0.0000000e+00 
3.8883137e-06 -3.0553846e-04 0.0000000e+00 
1.0058487e-05 -3.0553849e-04 0.0000000e+00 
-8.2470366e-06 -3.1364654e-04 0.0000000e+00 
-2.1614309e-06 -3.1369244e-04 0.0000000e+00 
3.9198996e-06 -3.1371524e-04 0.0000000e+00 
1.0002025e-05 -3.1371434e-04 0.0000000e+00 
-8.0315931e-06 -3.2169814e-04 0.0000000e+00 
-2.0381601e-06 -3.2174726e-04 0.0000000e+00 
3.9516520e-06 -3.2177166e-04 0.0000000e+00 
9.9421994e-06 -3.2177208e-04 0.0000000e+00 
-7.8094684e-06 -3.2962702e-04 0.0000000e+00 
-1.9111890e-06 -3.2967703e-04 0.0000000e+00 
3.9838030e-06 -3.2970217e-04 0.0000000e+00 
9.8791590e-06 -3.2970191e-04 0.0000000e+00 
-7.5811058e-06 -3.3742433e-04 0.0000000e+00 
-1.7810452e-06 -3.3747700e-04 0.0000000e+00 
4.0163381e-06 -3.3750351e-04 0.0000000e+00 
9.8140450e-06 -3.3750453e-04 0.0000000e+00 
-7.3478793e-06 -3.4509127e-04 0.0000000e+00 
-1.6480210e-06 -3.4514454e-04 0.0000000e+00 
4.0494696e-06 -3.4517168e-04 0.0000000e+00 
9.7469605e-06 -3.4517225e-04 0.0000000e+00 
-7.1101860e-06 -3.5262088e-04 0.0000000e+00 
-1.5125923e-06 -3.5267630e-04 0.0000000e+00 
4.0831962e-06 -3.5270464e-04 0.0000000e+00 
9.6789431e-06 -3.5270649e-04 0.0000000e+00 
-6.8692946e-06 -3.6001513e-04 0.0000000e+00 
-1.3750251e-06 -3.6007088e-04 0.0000000e+00 
4.1177057e-06 -3.6009975e-04 0.0000000e+00 
9.6100981e-06 -3.6010134e-04 0.0000000e+00 
-6.6255376e-06 -3.6726881e-04 0.0000000e+00 
-1.2357748e-06 -3.6732621e-04 0.0000000e+00 
4.1529746e-06 -3.6735608e-04 0.0000000e+00 
9.5413720e-06 -3.6735892e-04 0.0000000e+00 
-6.3800905e-06 -3.7438447e-04 0.0000000e+00 
-1.0951013e-06 -3.7444197e-04 0.0000000e+00 
4.1891479e-06 -3.7447221e-04 0.0000000e+00 
9.4728141e-06 -3.7447498e-04 0.0000000e+00 
-6.1331243e-06 -3.8135853e-04 0.0000000e+00 
-9.5348372e-07 -3.8141716e-04 0.0000000e+00 
4.2261302e-06 -3.8144831e-04 0.0000000e+00 
9.4053948e-06 -3.8145220e-04 0.0000000e+00 
-5.8857883e-06 -3.8819282e-04 0.0000000e+00 
-8.1082424e-07 -3.8825223e-04 0.0000000e+00 
4.2643447e-06 -3.8828424e-04 0.0000000e+00 
9.3390137e-06 -3.8828906e-04 0.0000000e+00 
-5.6387527e-06 -3.9488889e-04 0.0000000e+00 
-6.6782092e-07 -3.9494809e-04 0.0000000e+00 
4.3034176e-06 -3.9498026e-04 0.0000000e+00 
9.2739061e-06 -3.9498524e-04 0.0000000e+00 
-5.3921936e-06 -4.0144546e-04 0.0000000e+00 
-5.2480613e-07 -4.0150514e-04 0.0000000e+00 
4.3432867e-06 -4.0153778e-04 0.0000000e+00 
9.2106907e-06 -4.0154366e-04 0.0000000e+00 
-5.1470452e-06 -4.0786570e-04 0.0000000e+00 
-3.8190654e-07 -4.0792500e-04 0.0000000e+00 
4.3840643e-06 -4.0795778e-04 0.0000000e+00 
9.1492018e-06 -4.0796389e-04 0.0000000e+00 
-4.9033579e-06 -4.1414952e-04 0.0000000e+00 
-2.3943638e-07 -4.1420897e-04 0.0000000e+00 
4.4256663e-06 -4.1424205e-04 0.0000000e+00 
9.0900132e-06 -4.1424900e-04 0.0000000e+00 
-4.6619161e-06 -4.2030017e-04 0.0000000e+00 
-9.7521993e-08 -4.2035911e-04 0.0000000e+00 
4.4681574e-06 -4.2039226e-04 0.0000000e+00 
9.0329584e-06 -4.2039951e-04 0.0000000e+00 
-4.4227479e-06 -4.2631852e-04 0.0000000e+00 
4.3565888e-08 -4.2637733e-04 0.0000000e+00 
4.5114547e-06 -4.2641064e-04 0.0000000e+00 
8.9785233e-06 -4.2641863e-04 0.0000000e+00 
-4.1865082e-06 -4.3220790e-04 0.0000000e+00 
1.8371963e-07 -4.3226609e-04 0.0000000e+00 
4.5556090e-06 -4.3229939e-04 0.0000000e+00 
8.9265811e-06 -4.3230776e-04 0.0000000e+00 
-3.9532085e-06 -4.3796998e-04 0.0000000e+00 
3.2270959e-07 -4.3802779e-04 0.0000000e+00 
4.6005467e-06 -4.3806115e-04 0.0000000e+00 
8.8775427e-06 -4.3807018e-04 0.0000000e+00 
-3.7234253e-06 -4.4360814e-04 0.0000000e+00 
4.6044460e-07 -4.4366524e-04 0.0000000e+00 
4.6463102e-06 -4.4369853e-04 0.0000000e+00 
8.8312438e-06 -4.4370799e-04 0.0000000e+00 
-3.4971686e-06 -4.4912472e-04 0.0000000e+00 
5.9673000e-07 -4.4918124e-04 0.0000000e+00 
4.6928199e-06 -4.4921448e-04 0.0000000e+00 
8.7880485e-06 -4.4922452e-04 0.0000000e+00 
-3.2748761e-06 -4.5452314e-04 0.0000000e+00 
7.3148884e-07 -4.5457888e-04 0.0000000e+00 
4.7401074e-06 -4.5461201e-04 0.0000000e+00 
8.7478016e-06 -4.5462251e-04 0.0000000e+00 
-3.0565407e-06 -4.5980627e-04 0.0000000e+00 
8.6456429e-07 -4.5986129e-04 0.0000000e+00 
4.7881117e-06 -4.5989428e-04 0.0000000e+00 
8.7107928e-06 -4.5990531e-04 0.0000000e+00 
-2.8425876e-06 -4.6497759e-04 0.0000000e+00 
9.9589790e-07 -4.6503177e-04 0.0000000e+00 
4.8368555e-06 -4.6506461e-04 0.0000000e+00 
8.6768960e-06 -4.6507613e-04 0.0000000e+00 
-2.6329747e-06 -4.7004042e-04 0.0000000e+00 
1.1253491e-06 -4.7009373e-04 0.0000000e+00 
4.8862692e-06 -4.7012634e-04 0.0000000e+00 
8.6463430e-06 -4.7013833e-04 0.0000000e+00 
-2.4279152e-06 -4.7499827e-04 0.0000000e+00 
1.2528181e-06 -4.7505062e-04 0.0000000e+00 
4.9362956e-06 -4.7508299e-04 0.0000000e+00 
8.6190085e-06 -4.7509537e-04 0.0000000e+00 
-2.2276618e-06 -4.7985451e-04 0.0000000e+00 
1.3782604e-06 -4.7990597e-04 0.0000000e+00 
4.9869178e-06 -4.7993811e-04 0.0000000e+00 
8.5948135e-06 -4.7995100e-04 0.0000000e+00 
-2.0321063e-06 -4.8461297e-04 0.0000000e+00 
1.5015871e-06 -4.8466338e-04 0.0000000e+00 
5.0380705e-06 -4.8469521e-04 0.0000000e+00 
8.5738602e-06 -4.8470844e-04 0.0000000e+00 
-1.8413706e-06 -4.8927678e-04 0.0000000e+00 
1.6227845e-06 -4.8932629e-04 0.0000000e+00 
5.0897374e-06 -4.8935786e-04 0.0000000e+00 
8.5559947e-06 -4.8937158e-04 0.0000000e+00 
-1.6553770e-06 -4.9384985e-04 0.0000000e+00 
1.7418080e-06 -4.9389829e-04 0.0000000e+00 
5.1418550e-06 -4.9392953e-04 0.0000000e+00 
8.5412964e-06 -4.9394352e-04 0.0000000e+00 
-1.4742613e-06 -4.9833532e-04 0.0000000e+00 
1.8586545e-06 -4.9838286e-04 0.0000000e+00 
5.1944049e-06 -4.9841382e-04 0.0000000e+00 
8.5295721e-06 -4.9842829e-04 0.0000000e+00 
-1.2979033e-06 -5.0273713e-04 0.0000000e+00 
1.9732773e-06 -5.0278355e-04 0.0000000e+00 
5.2473267e-06 -5.0281414e-04 0.0000000e+00 
8.5208413e-06 -5.0282883e-04 0.0000000e+00 
-1.1263799e-06 -5.0705820e-04 0.0000000e+00 
2.0856826e-06 -5.0710373e-04 0.0000000e+00 
5.3005898e-06 -5.0713402e-04 0.0000000e+00 
8.5149967e-06 -5.0714916e-04 0.0000000e+00 
-9.5956654e-07 -5.1130248e-04 0.0000000e+00 
2.1958441e-06 -5.1134688e-04 0.0000000e+00 
5.3541381e-06 -5.1137677e-04 0.0000000e+00 
8.5120419e-06 -5.1139210e-04 0.0000000e+00 
-7.9753821e-07 -5.1547272e-04 0.0000000e+00 
2.3037733e-06 -5.1551624e-04 0.0000000e+00 
5.4079464e-06 -5.1554583e-04 0.0000000e+00 
8.5117375e-06 -5.1556157e-04 0.0000000e+00 
-6.4020160e-07 -5.1957283e-04 0.0000000e+00 
2.4094466e-06 -5.1961520e-04 0.0000000e+00 
5.4619502e-06 -5.1964435e-04 0.0000000e+00 
8.5140919e-06 -5.1966020e-04 0.0000000e+00 
-4.8754374e-07 -5.2360541e-04 0.0000000e+00 
2.5128710e-06 -5.2364691e-04 0.0000000e+00 
5.5161254e-06 -5.2367574e-04 0.0000000e+00 
8.5190615e-06 -5.2369199e-04 0.0000000e+00 
-3.3948647e-07 -5.2757430e-04 0.0000000e+00 
2.6140709e-06 -5.2761469e-04 0.0000000e+00 
5.5704561e-06 -5.2764312e-04 0.0000000e+00 
8.5265975e-06 -5.2765950e-04 0.0000000e+00 
-1.9599675e-07 -5.3148206e-04 0.0000000e+00 
2.7130680e-06 -5.3152160e-04 0.0000000e+00 
5.6249188e-06 -5.3154972e-04 0.0000000e+00 
8.5365352e-06 -5.3156647e-04 0.0000000e+00 
-5.6979734e-08 -5.3533237e-04 0.0000000e+00 
2.8098702e-06 -5.3537085e-04 0.0000000e+00 
5.6794539e-06 -5.3539848e-04 0.0000000e+00 
8.5488308e-06 -5.3541530e-04 0.0000000e+00 
7.7612929e-08 -5.3912805e-04 0.0000000e+00 
2.9043830e-06 -5.3916540e-04 0.0000000e+00 
5.7339068e-06 -5.3919254e-04 0.0000000e+00 
8.5633425e-06 -5.3920939e-04 0.0000000e+00 
2.0782995e-07 -5.4287155e-04 0.0000000e+00 
2.9967287e-06 -5.4290811e-04 0.0000000e+00 
5.7883260e-06 -5.4293492e-04 0.0000000e+00 
8.5799245e-06 -5.4295207e-04 0.0000000e+00 
3.3386273e-07 -5.4656644e-04 0.0000000e+00 
3.0869257e-06 -5.4660191e-04 0.0000000e+00 
5.8426621e-06 -5.4662826e-04 0.0000000e+00 
8.5984599e-06 -5.4664541e-04 0.0000000e+00 
4.5577971e-07 -5.5021461e-04 0.0000000e+00 
3.1750060e-06 -5.5024932e-04 0.0000000e+00 
5.8968647e-06 -5.5027533e-04 0.0000000e+00 
8.6188254e-06 -5.5029274e-04 0.0000000e+00 
5.7368902e-07 -5.5381938e-04 0.0000000e+00 
3.2610061e-06 -5.5385305e-04 0.0000000e+00 
5.9508807e-06 -5.5387860e-04 0.0000000e+00 
8.6409356e-06 -5.5389594e-04 0.0000000e+00 
6.8776787e-07 -5.5738249e-04 0.0000000e+00 
3.3449540e-06 -5.5741544e-04 0.0000000e+00 
6.0046762e-06 -5.5744064e-04 0.0000000e+00 
8.6646147e-06 -5.5745821e-04 0.0000000e+00 
7.9809444e-07 -5.6090698e-04 0.0000000e+00 
3.4268987e-06 -5.6093896e-04 0.0000000e+00 
6.0582208e-06 -5.6096373e-04 0.0000000e+00 
8.6897805e-06 -5.6098120e-04 0.0000000e+00 
9.0471293e-07 -5.6439459e-04 0.0000000e+00 
3.5068699e-06 -5.6442588e-04 0.0000000e+00 
6.1114749e-06 -5.6445030e-04 0.0000000e+00 
8.7163914e-06 -5.6446796e-04 0.0000000e+00 
1.0077869e-06 -5.6784821e-04 0.0000000e+00 
3.5848748e-06 -5.6787853e-04 0.0000000e+00 
6.1643978e-06 -5.6790250e-04 0.0000000e+00 
8.7443368e-06 -5.6792006e-04 0.0000000e+00 
1.1073512e-06 -5.7126918e-04 0.0000000e+00 
3.6609493e-06 -5.7129884e-04 0.0000000e+00 
6.2169549e-06 -5.7132248e-04 0.0000000e+00 
8.7733813e-06 -5.7134018e-04 0.0000000e+00 
1.2034896e-06 -5.7466025e-04 0.0000000e+00 
3.7351145e-06 -5.7468897e-04 0.0000000e+00 
6.2690693e-06 -5.7471211e-04 0.0000000e+00 
8.8034844e-06 -5.7472959e-04 0.0000000e+00 
1.2963731e-06 -5.7802265e-04 0.0000000e+00 
3.8073971e-06 -5.7805075e-04 0.0000000e+00 
6.3207089e-06 -5.7807354e-04 0.0000000e+00 
8.8345530e-06 -5.7809113e-04 0.0000000e+00 
1.3861154e-06 -5.8135889e-04 0.0000000e+00 
3.8778580e-06 -5.8138613e-04 0.0000000e+00 
6.3718684e-06 -5.8140849e-04 0.0000000e+00 
8.8664406e-06 -5.8142587e-04 0.0000000e+00 
1.4727626e-06 -5.8467014e-04 0.0000000e+00 
3.9465523e-06 -5.8469681e-04 0.0000000e+00 
6.4225010e-06 -5.8471883e-04 0.0000000e+00 
8.8990856e-06 -5.8473627e-04 0.0000000e+00 
1.5564903e-06 -5.8795872e-04 0.0000000e+00 
4.0135104e-06 -5.8798455e-04 0.0000000e+00 
6.4725679e-06 -5.8800607e-04 0.0000000e+00 
8.9322971e-06 -5.8802330e-04 0.0000000e+00 
1.6374848e-06 -5.9122565e-04 0.0000000e+00 
4.0786646e-06 -5.9125066e-04 0.0000000e+00 
6.5219168e-06 -5.9127168e-04 0.0000000e+00 
8.9659020e-06 -5.9128863e-04 0.0000000e+00 
1.7157711e-06 -5.9447191e-04 0.0000000e+00 
4.1421635e-06 -5.9449641e-04 0.0000000e+00 
6.5706026e-06 -5.9451709e-04 0.0000000e+00 
8.9998413e-06 -5.9453404e-04 0.0000000e+00 
1.7914353e-06 -5.9769951e-04 0.0000000e+00 
4.2040435e-06 -5.9772323e-04 0.0000000e+00 
6.6186217e-06 -5.9774348e-04 0.0000000e+00 
9.0340228e-06 -5.9776018e-04 0.0000000e+00 
1.8646648e-06 -6.0090894e-04 0.0000000e+00 
4.2643131e-06 -6.0093217e-04 0.0000000e+00 
6.6659464e-06 -6.0095208e-04 0.0000000e+00 
9.0684001e-06 -6.0096874e-04 0.0000000e+00 
1.9354621e-06 -6.0410196e-04 0.0000000e+00 
4.3230111e-06 -6.0412448e-04 0.0000000e+00 
6.7125499e-06 -6.0414397e-04 0.0000000e+00 
9.1029735e-06 -6.0416035e-04 0.0000000e+00 
2.0038226e-06 -6.0727920e-04 0.0000000e+00 
4.3801457e-06 -6.0730125e-04 0.0000000e+00 
6.7584264e-06 -6.0732040e-04 0.0000000e+00 
9.1376020e-06 -6.0733674e-04 0.0000000e+00 
2.0698152e-06 -6.1044238e-04 0.0000000e+00 