# vtk DataFile Version 4.0
vtk output
ASCII
DATASET UNSTRUCTURED_GRID
POINTS 604 float
5.5000000e+00 5.9700000e+00 0.0000000e+00 
5.5000000e+00 5.9900000e+00 0.0000000e+00 
5.5266667e+00 5.9700000e+00 0.0000000e+00 
5.5266667e+00 5.9900000e+00 0.0000000e+00 
5.5000000e+00 6.0100000e+00 0.0000000e+00 
5.5266667e+00 6.0100000e+00 0.0000000e+00 
5.5533333e+00 5.9700000e+00 0.0000000e+00 
5.5533333e+00 5.9900000e+00 0.0000000e+00 
5.5000000e+00 6.0300000e+00 0.0000000e+00 
5.5266667e+00 6.0300000e+00 0.0000000e+00 
5.5533333e+00 6.0100000e+00 0.0000000e+00 
5.5800000e+00 5.9700000e+00 0.0000000e+00 
5.5533333e+00 6.0300000e+00 0.0000000e+00 
5.5800000e+00 5.9900000e+00 0.0000000e+00 
5.5800000e+00 6.0100000e+00 0.0000000e+00 
5.5800000e+00 6.0300000e+00 0.0000000e+00 
5.6066667e+00 5.9700000e+00 0.0000000e+00 
5.6066667e+00 5.9900000e+00 0.0000000e+00 
5.6066667e+00 6.0100000e+00 0.0000000e+00 
5.6066667e+00 6.0300000e+00 0.0000000e+00 
5.6333333e+00 5.9700000e+00 0.0000000e+00 
5.6333333e+00 5.9900000e+00 0.0000000e+00 
5.6333333e+00 6.0100000e+00 0.0000000e+00 
5.6333333e+00 6.0300000e+00 0.0000000e+00 
5.6600000e+00 5.9700000e+00 0.0000000e+00 
5.6600000e+00 5.9900000e+00 0.0000000e+00 
5.6600000e+00 6.0100000e+00 0.0000000e+00 
5.6600000e+00 6.0300000e+00 0.0000000e+00 
5.6866667e+00 5.9700000e+00 0.0000000e+00 
5.6866667e+00 5.9900000e+00 0.0000000e+00 
5.6866667e+00 6.0100000e+00 0.0000000e+00 
5.6866667e+00 6.0300000e+00 0.0000000e+00 
5.7133333e+00 5.9700000e+00 0.0000000e+00 
5.7133333e+00 5.9900000e+00 0.0000000e+00 
5.7133333e+00 6.0100000e+00 0.0000000e+00 
5.7133333e+00 6.0300000e+00 0.0000000e+00 
5.7400000e+00 5.9700000e+00 0.0000000e+00 
5.7400000e+00 5.9900000e+00 0.0000000e+00 
5.7400000e+00 6.0100000e+00 0.0000000e+00 
5.7400000e+00 6.0300000e+00 0.0000000e+00 
5.7666667e+00 5.9700000e+00 0.0000000e+00 
5.7666667e+00 5.9900000e+00 0.0000000e+00 
5.7666667e+00 6.0100000e+00 0.0000000e+00 
5.7666667e+00 6.0300000e+00 0.0000000e+00 
5.7933333e+00 5.9700000e+00 0.0000000e+00 
5.7933333e+00 5.9900000e+00 0.0000000e+00 
5.7933333e+00 6.0100000e+00 0.0000000e+00 
5.7933333e+00 6.0300000e+00 0.0000000e+00 
5.8200000e+00 5.9700000e+00 0.0000000e+00 
5.8200000e+00 5.9900000e+00 0.0000000e+00 
5.8200000e+00 6.0100000e+00 0.0000000e+00 
5.8200000e+00 6.0300000e+00 0.0000000e+00 
5.8466667e+00 5.9700000e+00 0.0000000e+00 
5.8466667e+00 5.9900000e+00 0.0000000e+00 
5.8466667e+00 6.0100000e+00 0.0000000e+00 
5.8466667e+00 6.0300000e+00 0.0000000e+00 
5.8733333e+00 5.9700000e+00 0.0000000e+00 
5.8733333e+00 5.9900000e+00 0.0000000e+00 
5.8733333e+00 6.0100000e+00 0.0000000e+00 
5.8733333e+00 6.0300000e+00 0.0000000e+00 
5.9000000e+00 5.9700000e+00 0.0000000e+00 
5.9000000e+00 5.9900000e+00 0.0000000e+00 
5.9000000e+00 6.0100000e+00 0.0000000e+00 
5.9000000e+00 6.0300000e+00 0.0000000e+00 
5.9266667e+00 5.9700000e+00 0.0000000e+00 
5.9266667e+00 5.9900000e+00 0.0000000e+00 
5.9266667e+00 6.0100000e+00 0.0000000e+00 
5.9266667e+00 6.0300000e+00 0.0000000e+00 
5.9533333e+00 5.9700000e+00 0.0000000e+00 
5.9533333e+00 5.9900000e+00 0.0000000e+00 
5.9533333e+00 6.0100000e+00 0.0000000e+00 
5.9533333e+00 6.0300000e+00 0.0000000e+00 
5.9800000e+00 5.9700000e+00 0.0000000e+00 
5.9800000e+00 5.9900000e+00 0.0000000e+00 
5.9800000e+00 6.0100000e+00 0.0000000e+00 
5.9800000e+00 6.0300000e+00 0.0000000e+00 
6.0066667e+00 5.9700000e+00 0.0000000e+00 
6.0066667e+00 5.9900000e+00 0.0000000e+00 
6.0066667e+00 6.0100000e+00 0.0000000e+00 
6.0066667e+00 6.0300000e+00 0.0000000e+00 
6.0333333e+00 5.9700000e+00 0.0000000e+00 
6.0333333e+00 5.9900000e+00 0.0000000e+00 
6.0333333e+00 6.0100000e+00 0.0000000e+00 
6.0333333e+00 6.0300000e+00 0.0000000e+00 
6.0600000e+00 5.9700000e+00 0.0000000e+00 
6.0600000e+00 5.9900000e+00 0.0000000e+00 
6.0600000e+00 6.0100000e+00 0.0000000e+00 
6.0600000e+00 6.0300000e+00 0.0000000e+00 
6.0866667e+00 5.9700000e+00 0.0000000e+00 
6.0866667e+00 5.9900000e+00 0.0000000e+00 
6.0866667e+00 6.0100000e+00 0.0000000e+00 
6.0866667e+00 6.0300000e+00 0.0000000e+00 
6.1133333e+00 5.9700000e+00 0.0000000e+00 
6.1133333e+00 5.9900000e+00 0.0000000e+00 
6.1133333e+00 6.0100000e+00 0.0000000e+00 
6.1133333e+00 6.0300000e+00 0.0000000e+00 
6.1400000e+00 5.9700000e+00 0.0000000e+00 
6.1400000e+00 5.9900000e+00 0.0000000e+00 
6.1400000e+00 6.0100000e+00 0.0000000e+00 
6.1400000e+00 6.0300000e+00 0.0000000e+00 
6.1666667e+00 5.9700000e+00 0.0000000e+00 
6.1666667e+00 5.9900000e+00 0.0000000e+00 
6.1666667e+00 6.0100000e+00 0.0000000e+00 
6.1666667e+00 6.0300000e+00 0.0000000e+00 
6.1933333e+00 5.9700000e+00 0.0000000e+00 
6.1933333e+00 5.9900000e+00 0.0000000e+00 
6.1933333e+00 6.0100000e+00 0.0000000e+00 
6.1933333e+00 6.0300000e+00 0.0000000e+00 
6.2200000e+00 5.9700000e+00 0.0000000e+00 
6.2200000e+00 5.9900000e+00 0.0000000e+00 
6.2200000e+00 6.0100000e+00 0.0000000e+00 
6.2200000e+00 6.0300000e+00 0.0000000e+00 
6.2466667e+00 5.9700000e+00 0.0000000e+00 
6.2466667e+00 5.9900000e+00 0.0000000e+00 
6.2466667e+00 6.0100000e+00 0.0000000e+00 
6.2466667e+00 6.0300000e+00 0.0000000e+00 
6.2733333e+00 5.9700000e+00 0.0000000e+00 
6.2733333e+00 5.9900000e+00 0.0000000e+00 
6.2733333e+00 6.0100000e+00 0.0000000e+00 
6.2733333e+00 6.0300000e+00 0.0000000e+00 
6.3000000e+00 5.9700000e+00 0.0000000e+00 
6.3000000e+00 5.9900000e+00 0.0000000e+00 
6.3000000e+00 6.0100000e+00 0.0000000e+00 
6.3000000e+00 6.0300000e+00 0.0000000e+00 
6.3266667e+00 5.9700000e+00 0.0000000e+00 
6.3266667e+00 5.9900000e+00 0.0000000e+00 
6.3266667e+00 6.0100000e+00 0.0000000e+00 
6.3266667e+00 6.0300000e+00 0.0000000e+00 
6.3533333e+00 5.9700000e+00 0.0000000e+00 
6.3533333e+00 5.9900000e+00 0.0000000e+00 
6.3533333e+00 6.0100000e+00 0.0000000e+00 
6.3533333e+00 6.0300000e+00 0.0000000e+00 
6.3800000e+00 5.9700000e+00 0.0000000e+00 
6.3800000e+00 5.9900000e+00 0.0000000e+00 
6.3800000e+00 6.0100000e+00 0.0000000e+00 
6.3800000e+00 6.0300000e+00 0.0000000e+00 
6.4066667e+00 5.9700000e+00 0.0000000e+00 
6.4066667e+00 5.9900000e+00 0.0000000e+00 
6.4066667e+00 6.0100000e+00 0.0000000e+00 
6.4066667e+00 6.0300000e+00 0.0000000e+00 
6.4333333e+00 5.9700000e+00 0.0000000e+00 
6.4333333e+00 5.9900000e+00 0.0000000e+00 
6.4333333e+00 6.0100000e+00 0.0000000e+00 
6.4333333e+00 6.0300000e+00 0.0000000e+00 
6.4600000e+00 5.9700000e+00 0.0000000e+00 
6.4600000e+00 5.9900000e+00 0.0000000e+00 
6.4600000e+00 6.0100000e+00 0.0000000e+00 
6.4600000e+00 6.0300000e+00 0.0000000e+00 
6.4866667e+00 5.9700000e+00 0.0000000e+00 
6.4866667e+00 5.9900000e+00 0.0000000e+00 
6.4866667e+00 6.0100000e+00 0.0000000e+00 
6.4866667e+00 6.0300000e+00 0.0000000e+00 
6.5133333e+00 5.9700000e+00 0.0000000e+00 
6.5133333e+00 5.9900000e+00 0.0000000e+00 
6.5133333e+00 6.0100000e+00 0.0000000e+00 
6.5133333e+00 6.0300000e+00 0.0000000e+00 
6.5400000e+00 5.9700000e+00 0.0000000e+00 
6.5400000e+00 5.9900000e+00 0.0000000e+00 
6.5400000e+00 6.0100000e+00 0.0000000e+00 
6.5400000e+00 6.0300000e+00 0.0000000e+00 
6.5666667e+00 5.9700000e+00 0.0000000e+00 
6.5666667e+00 5.9900000e+00 0.0000000e+00 
6.5666667e+00 6.0100000e+00 0.0000000e+00 
6.5666667e+00 6.0300000e+00 0.0000000e+00 
6.5933333e+00 5.9700000e+00 0.0000000e+00 
6.5933333e+00 5.9900000e+00 0.0000000e+00 
6.5933333e+00 6.0100000e+00 0.0000000e+00 
6.5933333e+00 6.0300000e+00 0.0000000e+00 
6.6200000e+00 5.9700000e+00 0.0000000e+00 
6.6200000e+00 5.9900000e+00 0.0000000e+00 
6.6200000e+00 6.0100000e+00 0.0000000e+00 
6.6200000e+00 6.0300000e+00 0.0000000e+00 
6.6466667e+00 5.9700000e+00 0.0000000e+00 
6.6466667e+00 5.9900000e+00 0.0000000e+00 
6.6466667e+00 6.0100000e+00 0.0000000e+00 
6.6466667e+00 6.0300000e+00 0.0000000e+00 
6.6733333e+00 5.9700000e+00 0.0000000e+00 
6.6733333e+00 5.9900000e+00 0.0000000e+00 
6.6733333e+00 6.0100000e+00 0.0000000e+00 
6.6733333e+00 6.0300000e+00 0.0000000e+00 
6.7000000e+00 5.9700000e+00 0.0000000e+00 
6.7000000e+00 5.9900000e+00 0.0000000e+00 
6.7000000e+00 6.0100000e+00 0.0000000e+00 
6.7000000e+00 6.0300000e+00 0.0000000e+00 
6.7266667e+00 5.9700000e+00 0.0000000e+00 
6.7266667e+00 5.9900000e+00 0.0000000e+00 
6.7266667e+00 6.0100000e+00 0.0000000e+00 
6.7266667e+00 6.0300000e+00 0.0000000e+00 
6.7533333e+00 5.9700000e+00 0.0000000e+00 
6.7533333e+00 5.9900000e+00 0.0000000e+00 
6.7533333e+00 6.0100000e+00 0.0000000e+00 
6.7533333e+00 6.0300000e+00 0.0000000e+00 
6.7800000e+00 5.9700000e+00 0.0000000e+00 
6.7800000e+00 5.9900000e+00 0.0000000e+00 
6.7800000e+00 6.0100000e+00 0.0000000e+00 
6.7800000e+00 6.0300000e+00 0.0000000e+00 
6.8066667e+00 5.9700000e+00 0.0000000e+00 
6.8066667e+00 5.9900000e+00 0.0000000e+00 
6.8066667e+00 6.0100000e+00 0.0000000e+00 
6.8066667e+00 6.0300000e+00 0.0000000e+00 
6.8333333e+00 5.9700000e+00 0.0000000e+00 
6.8333333e+00 5.9900000e+00 0.0000000e+00 
6.8333333e+00 6.0100000e+00 0.0000000e+00 
6.8333333e+00 6.0300000e+00 0.0000000e+00 
6.8600000e+00 5.9700000e+00 0.0000000e+00 
6.8600000e+00 5.9900000e+00 0.0000000e+00 
6.8600000e+00 6.0100000e+00 0.0000000e+00 
6.8600000e+00 6.0300000e+00 0.0000000e+00 
6.8866667e+00 5.9700000e+00 0.0000000e+00 
6.8866667e+00 5.9900000e+00 0.0000000e+00 
6.8866667e+00 6.0100000e+00 0.0000000e+00 
6.8866667e+00 6.0300000e+00 0.0000000e+00 
6.9133333e+00 5.9700000e+00 0.0000000e+00 
6.9133333e+00 5.9900000e+00 0.0000000e+00 
6.9133333e+00 6.0100000e+00 0.0000000e+00 
6.9133333e+00 6.0300000e+00 0.0000000e+00 
6.9400000e+00 5.9700000e+00 0.0000000e+00 
6.9400000e+00 5.9900000e+00 0.0000000e+00 
6.9400000e+00 6.0100000e+00 0.0000000e+00 
6.9400000e+00 6.0300000e+00 0.0000000e+00 
6.9666667e+00 5.9700000e+00 0.0000000e+00 
6.9666667e+00 5.9900000e+00 0.0000000e+00 
6.9666667e+00 6.0100000e+00 0.0000000e+00 
6.9666667e+00 6.0300000e+00 0.0000000e+00 
6.9933333e+00 5.9700000e+00 0.0000000e+00 
6.9933333e+00 5.9900000e+00 0.0000000e+00 
6.9933333e+00 6.0100000e+00 0.0000000e+00 
6.9933333e+00 6.0300000e+00 0.0000000e+00 
7.0200000e+00 5.9700000e+00 0.0000000e+00 
7.0200000e+00 5.9900000e+00 0.0000000e+00 
[...]
POINT_DATA 604
FIELD FieldData 2
DISPLACEMENT 3 604  float
0.0000000e+00 0.0000000e+00 0.0000000e+00 
0.0000000e+00 0.0000000e+00 0.0000000e+00 
-1.5178118e-04 -9.0150101e-05 0.0000000e+00 
-4.8537447e-05 -5.8650348e-05 0.0000000e+00 
0.0000000e+00 0.0000000e+00 0.0000000e+00 
4.7786716e-05 -5.9033827e-05 0.0000000e+00 
-3.0732232e-04 -2.9053888e-04 0.0000000e+00 
-1.0332857e-04 -2.6536636e-04 0.0000000e+00 
0.0000000e+00 0.0000000e+00 0.0000000e+00 
1.5084900e-04 -9.1206888e-05 0.0000000e+00 
1.0051329e-04 -2.6659860e-04 0.0000000e+00 
-4.6256777e-04 -6.3054738e-04 0.0000000e+00 
3.0398291e-04 -2.9407321e-04 0.0000000e+00 
-1.5626005e-04 -6.0640106e-04 0.0000000e+00 
1.4862548e-04 -6.0890448e-04 0.0000000e+00 
4.5409690e-04 -6.3792732e-04 0.0000000e+00 
-6.1773555e-04 -1.1041304e-03 0.0000000e+00 
-2.1097163e-04 -1.0821859e-03 0.0000000e+00 
1.9437846e-04 -1.0864652e-03 0.0000000e+00 
6.0005959e-04 -1.1168589e-03 0.0000000e+00 
-7.7358980e-04 -1.7099979e-03 0.0000000e+00 
-2.6766198e-04 -1.6906570e-03 0.0000000e+00 
2.3671815e-04 -1.6971866e-03 0.0000000e+00 
7.4132389e-04 -1.7294876e-03 0.0000000e+00 
-9.3072417e-04 -2.4463390e-03 0.0000000e+00 
-3.2699190e-04 -2.4300596e-03 0.0000000e+00 
2.7507780e-04 -2.4392891e-03 0.0000000e+00 
8.7725708e-04 -2.4739413e-03 0.0000000e+00 
-1.0897231e-03 -3.3113871e-03 0.0000000e+00 
-3.8954277e-04 -3.2985994e-03 0.0000000e+00 
3.0886403e-04 -3.3109594e-03 0.0000000e+00 
1.0072706e-03 -3.3483931e-03 0.0000000e+00 
-1.2511442e-03 -4.3033667e-03 0.0000000e+00 
-4.5587499e-04 -4.2944824e-03 0.0000000e+00 
3.3751508e-04 -4.3103839e-03 0.0000000e+00 
1.1308001e-03 -4.3510096e-03 0.0000000e+00 
-1.4155201e-03 -5.4205000e-03 0.0000000e+00 
-5.2652293e-04 -5.4159114e-03 0.0000000e+00 
3.6049470e-04 -5.4357464e-03 0.0000000e+00 
1.2473073e-03 -5.4799556e-03 0.0000000e+00 
-1.5833586e-03 -6.6610062e-03 0.0000000e+00 
-6.0199568e-04 -6.6610866e-03 0.0000000e+00 
3.7729222e-04 -6.6852283e-03 0.0000000e+00 
1.3562799e-03 -6.7333934e-03 0.0000000e+00 
-1.7551425e-03 -8.0231027e-03 0.0000000e+00 
-6.8277755e-04 -8.0282066e-03 0.0000000e+00 
3.8742208e-04 -8.0570093e-03 0.0000000e+00 
1.4572311e-03 -8.1094845e-03 0.0000000e+00 
-1.9313310e-03 -9.5050042e-03 0.0000000e+00 
-7.6932829e-04 -9.5154680e-03 0.0000000e+00 
3.9042365e-04 -9.5492678e-03 0.0000000e+00 
1.5496992e-03 -9.6063888e-03 0.0000000e+00 
-2.1123591e-03 -1.1104925e-02 0.0000000e+00 
-8.6208357e-04 -1.1121067e-02 0.0000000e+00 
3.8586069e-04 -1.1160181e-02 0.0000000e+00 
1.6332472e-03 -1.1222266e-02 0.0000000e+00 
-2.2986387e-03 -1.2821077e-02 0.0000000e+00 
-9.6145526e-04 -1.2843197e-02 0.0000000e+00 
3.7332111e-04 -1.2887927e-02 0.0000000e+00 
1.7074629e-03 -1.2955275e-02 0.0000000e+00 
-2.4905584e-03 -1.4651674e-02 0.0000000e+00 
-1.0678319e-03 -1.4680054e-02 0.0000000e+00 
3.5241648e-04 -1.4730682e-02 0.0000000e+00 
1.7719579e-03 -1.4803577e-02 0.0000000e+00 
-2.6884844e-03 -1.6594928e-02 0.0000000e+00 
-1.1815792e-03 -1.6629833e-02 0.0000000e+00 
3.2278179e-04 -1.6686624e-02 0.0000000e+00 
1.8263675e-03 -1.6765331e-02 0.0000000e+00 
-2.8927610e-03 -1.8649049e-02 0.0000000e+00 
-1.3030401e-03 -1.8690728e-02 0.0000000e+00 
2.8407491e-04 -1.8753931e-02 0.0000000e+00 
1.8703506e-03 -1.8838699e-02 0.0000000e+00 
-3.1037106e-03 -2.0812254e-02 0.0000000e+00 
-1.4325357e-03 -2.0860938e-02 0.0000000e+00 
2.3597623e-04 -2.0930785e-02 0.0000000e+00 
1.9035889e-03 -2.1021846e-02 0.0000000e+00 
-3.3216344e-03 -2.3082757e-02 0.0000000e+00 
-1.5703652e-03 -2.3138661e-02 0.0000000e+00 
1.7818823e-04 -2.3215369e-02 0.0000000e+00 
1.9257864e-03 -2.3312939e-02 0.0000000e+00 
-3.5468127e-03 -2.5458776e-02 0.0000000e+00 
-1.7168066e-03 -2.5522100e-02 0.0000000e+00 
1.1043505e-04 -2.5605867e-02 0.0000000e+00 
1.9366693e-03 -2.5710146e-02 0.0000000e+00 
-3.7795049e-03 -2.7938531e-02 0.0000000e+00 
-1.8721171e-03 -2.8009458e-02 0.0000000e+00 
3.2462027e-05 -2.8100469e-02 0.0000000e+00 
1.9359856e-03 -2.8211643e-02 0.0000000e+00 
-4.0199508e-03 -3.0520245e-02 0.0000000e+00 
-2.0365335e-03 -3.0598943e-02 0.0000000e+00 
-5.5964723e-05 -3.0697367e-02 0.0000000e+00 
1.9235041e-03 -3.0815605e-02 0.0000000e+00 
-4.2683706e-03 -3.3202145e-02 0.0000000e+00 
-2.2102725e-03 -3.3288767e-02 0.0000000e+00 
-1.5505879e-04 -3.3394758e-02 0.0000000e+00 
1.8990142e-03 -3.3520216e-02 0.0000000e+00 
-4.5249654e-03 -3.5982461e-02 0.0000000e+00 
-2.3935316e-03 -3.6077146e-02 0.0000000e+00 
-2.6501401e-04 -3.6190844e-02 0.0000000e+00 
1.8623259e-03 -3.6323661e-02 0.0000000e+00 
-4.7899177e-03 -3.8859430e-02 0.0000000e+00 
-2.5864891e-03 -3.8962301e-02 0.0000000e+00 
-3.8600474e-04 -3.9083831e-02 0.0000000e+00 
1.8132683e-03 -3.9224134e-02 0.0000000e+00 
-5.0633916e-03 -4.1831291e-02 0.0000000e+00 
-2.7893048e-03 -4.1942459e-02 0.0000000e+00 
-5.1818650e-04 -4.2071933e-02 0.0000000e+00 
1.7516903e-03 -4.2219834e-02 0.0000000e+00 
-5.3455336e-03 -4.4896291e-02 0.0000000e+00 
-3.0021204e-03 -4.5015852e-02 0.0000000e+00 
-6.6169627e-04 -4.5153366e-02 0.0000000e+00 
1.6774594e-03 -4.5308965e-02 0.0000000e+00 
-5.6364726e-03 -4.8052680e-02 0.0000000e+00 
-3.2250599e-03 -4.8180718e-02 0.0000000e+00 
-8.1665305e-04 -4.8326358e-02 0.0000000e+00 
1.5904615e-03 -4.8489740e-02 0.0000000e+00 
-5.9363209e-03 -5.1298717e-02 0.0000000e+00 
-3.4582299e-03 -5.1435301e-02 0.0000000e+00 
-9.8315833e-04 -5.1589139e-02 0.0000000e+00 
1.4906005e-03 -5.1760377e-02 0.0000000e+00 
-6.2451744e-03 -5.4632667e-02 0.0000000e+00 
-3.7017208e-03 -5.4777855e-02 0.0000000e+00 
-1.1612966e-03 -5.4939950e-02 0.0000000e+00 
1.3777973e-03 -5.5119105e-02 0.0000000e+00 
-6.5631130e-03 -5.8052801e-02 0.0000000e+00 
-3.9556063e-03 -5.8206639e-02 0.0000000e+00 
-1.3511356e-03 -5.8377038e-02 0.0000000e+00 
1.2519901e-03 -5.8564159e-02 0.0000000e+00 
-6.8902015e-03 -6.1557399e-02 0.0000000e+00 
-4.2199447e-03 -6.1719921e-02 0.0000000e+00 
-1.5527272e-03 -6.1898660e-02 0.0000000e+00 
1.1131334e-03 -6.2093784e-02 0.0000000e+00 
-7.2264898e-03 -6.5144750e-02 0.0000000e+00 
-4.4947790e-03 -6.5315977e-02 0.0000000e+00 
-1.7661076e-03 -6.5503080e-02 0.0000000e+00 
9.6119782e-04 -6.5706233e-02 0.0000000e+00 
-7.5720134e-03 -6.8813149e-02 0.0000000e+00 
-4.7801372e-03 -6.8993093e-02 0.0000000e+00 
-1.9912978e-03 -6.9188573e-02 0.0000000e+00 
7.9616912e-04 -6.9399769e-02 0.0000000e+00 
-7.9267936e-03 -7.2560903e-02 0.0000000e+00 
-5.0760333e-03 -7.2749564e-02 0.0000000e+00 
-2.2283044e-03 -7.2953424e-02 0.0000000e+00 
6.1804801e-04 -7.3172668e-02 0.0000000e+00 
-8.2908377e-03 -7.6386326e-02 0.0000000e+00 
-5.3824673e-03 -7.6583695e-02 0.0000000e+00 
-2.4771198e-03 -7.6795927e-02 0.0000000e+00 
4.2684983e-04 -7.7023213e-02 0.0000000e+00 
-8.6641407e-03 -8.0287746e-02 0.0000000e+00 
-5.6994259e-03 -8.0493802e-02 0.0000000e+00 
-2.7377226e-03 -8.0714387e-02 0.0000000e+00 
2.2260364e-04 -8.0949700e-02 0.0000000e+00 
-9.0466850e-03 -8.4263495e-02 0.0000000e+00 
-6.0268830e-03 -8.4478209e-02 0.0000000e+00 
-3.0100786e-03 -8.4707121e-02 0.0000000e+00 
5.3520015e-06 -8.4950435e-02 0.0000000e+00 
-9.4384406e-03 -8.8311921e-02 0.0000000e+00 
-6.3648003e-03 -8.8535253e-02 0.0000000e+00 
-3.2941407e-03 -8.8772456e-02 0.0000000e+00 
-2.2484949e-04 -8.9023737e-02 0.0000000e+00 
-9.8393668e-03 -9.2431381e-02 0.0000000e+00 
-6.7131274e-03 -9.2663284e-02 0.0000000e+00 
-3.5898499e-03 -9.2908732e-02 0.0000000e+00 
-4.6793311e-04 -9.3167937e-02 0.0000000e+00 
-1.0249411e-02 -9.6620244e-02 0.0000000e+00 
-7.0718028e-03 -9.6860662e-02 0.0000000e+00 
-3.8971353e-03 -9.7114301e-02 0.0000000e+00 
-7.2381900e-04 -9.7381378e-02 0.0000000e+00 
-1.0668510e-02 -1.0087689e-01 0.0000000e+00 
-7.4407538e-03 -1.0112576e-01 0.0000000e+00 
-4.2159150e-03 -1.0138753e-01 0.0000000e+00 
-9.9241591e-04 -1.0166242e-01 0.0000000e+00 
-1.1096590e-02 -1.0519971e-01 0.0000000e+00 
-7.8198973e-03 -1.0545696e-01 0.0000000e+00 
-4.5460962e-03 -1.0572679e-01 0.0000000e+00 
-1.2736216e-03 -1.0600942e-01 0.0000000e+00 
-1.1533568e-02 -1.0958711e-01 0.0000000e+00 
-8.2091399e-03 -1.0985266e-01 0.0000000e+00 
-4.8875760e-03 -1.1013047e-01 0.0000000e+00 
-1.5673234e-03 -1.1042078e-01 0.0000000e+00 
-1.1979351e-02 -1.1403752e-01 0.0000000e+00 
-8.6083791e-03 -1.1431127e-01 0.0000000e+00 
-5.2402414e-03 -1.1459698e-01 0.0000000e+00 
-1.8733985e-03 -1.1489488e-01 0.0000000e+00 
-1.2433838e-02 -1.1854935e-01 0.0000000e+00 
-9.0175031e-03 -1.1883122e-01 0.0000000e+00 
-5.6039704e-03 -1.1912474e-01 0.0000000e+00 
-2.1917143e-03 -1.1943013e-01 0.0000000e+00 
-1.2896920e-02 -1.2312105e-01 0.0000000e+00 
-9.4363912e-03 -1.2341094e-01 0.0000000e+00 
-5.9786318e-03 -1.2371217e-01 0.0000000e+00 
-2.5221292e-03 -1.2402497e-01 0.0000000e+00 
-1.3368478e-02 -1.2775109e-01 0.0000000e+00 
-9.8649150e-03 -1.2804889e-01 0.0000000e+00 
-6.3640861e-03 -1.2835772e-01 0.0000000e+00 
-2.8644929e-03 -1.2867783e-01 0.0000000e+00 
-1.3848388e-02 -1.3243793e-01 0.0000000e+00 
-1.0302938e-02 -1.3274353e-01 0.0000000e+00 
-6.7601858e-03 -1.3305986e-01 0.0000000e+00 
-3.2186469e-03 -1.3338716e-01 0.0000000e+00 
-1.4336517e-02 -1.3718007e-01 0.0000000e+00 
-1.0750317e-02 -1.3749334e-01 0.0000000e+00 
-7.1667760e-03 -1.3781705e-01 0.0000000e+00 
-3.5844249e-03 -1.3815145e-01 0.0000000e+00 
-1.4832727e-02 -1.4197599e-01 0.0000000e+00 
-1.1206901e-02 -1.4229682e-01 0.0000000e+00 
-7.5836947e-03 -1.4262780e-01 0.0000000e+00 
-3.9616534e-03 -1.4296917e-01 0.0000000e+00 
-1.5336873e-02 -1.4682423e-01 0.0000000e+00 
-1.1672534e-02 -1.4715249e-01 0.0000000e+00 
-8.0107731e-03 -1.4749061e-01 0.0000000e+00 
-4.3501522e-03 -1.4783882e-01 0.0000000e+00 
-1.5848803e-02 -1.5172331e-01 0.0000000e+00 
-1.2147051e-02 -1.5205887e-01 0.0000000e+00 
-8.4478364e-03 -1.5240399e-01 0.0000000e+00 
-4.7497343e-03 -1.5275893e-01 0.0000000e+00 
-1.6368361e-02 -1.5667178e-01 0.0000000e+00 
-1.2630286e-02 -1.5701450e-01 0.0000000e+00 
-8.8947038e-03 -1.5736650e-01 0.0000000e+00 
-5.1602069e-03 -1.5772804e-01 0.0000000e+00 
-1.6895387e-02 -1.6166820e-01 0.0000000e+00 
-1.3122064e-02 -1.6201794e-01 0.0000000e+00 
-9.3511890e-03 -1.6237669e-01 0.0000000e+00 
-5.5813713e-03 -1.6274468e-01 0.0000000e+00 
-1.7429714e-02 -1.6671115e-01 0.0000000e+00 
-1.3622207e-02 -1.6706778e-01 0.0000000e+00 
-9.8171011e-03 -1.6743312e-01 0.0000000e+00 
-6.0130237e-03 -1.6780744e-01 0.0000000e+00 
-1.7971176e-02 -1.7179924e-01 0.0000000e+00 
-1.4130532e-02 -1.7216259e-01 0.0000000e+00 
-1.0292245e-02 -1.7253440e-01 0.0000000e+00 
-6.4549554e-03 -1.7291490e-01 0.0000000e+00 
-1.8519598e-02 -1.7693107e-01 0.0000000e+00 
-1.4646854e-02 -1.7730101e-01 0.0000000e+00 
-1.0776420e-02 -1.7767913e-01 0.0000000e+00 
-6.9069535e-03 -1.7806567e-01 0.0000000e+00 
-1.9074804e-02 -1.8210528e-01 0.0000000e+00 
-1.5170984e-02 -1.8248165e-01 0.0000000e+00 
-1.1269424e-02 -1.8286593e-01 0.0000000e+00 
-7.3688014e-03 -1.8325837e-01 0.0000000e+00 
-1.9636615e-02 -1.8732052e-01 0.0000000e+00 
-1.5702727e-02 -1.8770316e-01 0.0000000e+00 
-1.1771049e-02 -1.8809345e-01 0.0000000e+00 
-7.8402788e-03 -1.8849165e-01 0.0000000e+00 
-2.0204851e-02 -1.9257545e-01 0.0000000e+00 
-1.6241888e-02 -1.9296421e-01 0.0000000e+00 
-1.2281088e-02 -1.9336037e-01 0.0000000e+00 
-8.3211623e-03 -1.9376416e-01 0.0000000e+00 
-2.0779327e-02 -1.9786877e-01 0.0000000e+00 
-1.6788271e-02 -1.9826349e-01 0.0000000e+00 
-1.2799326e-02 -1.9866535e-01 0.0000000e+00 
-8.8112253e-03 -1.9907459e-01 0.0000000e+00 
-2.1359859e-02 -2.0319917e-01 0.0000000e+00 
-1.7341674e-02 -2.0359969e-01 0.0000000e+00 
-1.3325550e-02 -2.0400710e-01 0.0000000e+00 
-9.3102391e-03 -2.0442164e-01 0.0000000e+00 
-2.1946260e-02 -2.0856538e-01 0.0000000e+00 
-1.7901897e-02 -2.0897154e-01 0.0000000e+00 
-1.3859545e-02 -2.0938434e-01 0.0000000e+00 
-9.8179729e-03 -2.0980402e-01 0.0000000e+00 
-2.2538343e-02 -2.1396614e-01 0.0000000e+00 
-1.8468738e-02 -2.1437778e-01 0.0000000e+00 
-1.4401092e-02 -2.1479582e-01 0.0000000e+00 
-1.0334194e-02 -2.1522049e-01 0.0000000e+00 
-2.3135921e-02 -2.1940023e-01 0.0000000e+00 
-1.9041993e-02 -2.1981718e-01 0.0000000e+00 
-1.4949973e-02 -2.2024029e-01 0.0000000e+00 
-1.0858670e-02 -2.2066981e-01 0.0000000e+00 
-2.3738804e-02 -2.2486641e-01 0.0000000e+00 
-1.9621459e-02 -2.2528852e-01 0.0000000e+00 
-1.5505969e-02 -2.2571655e-01 0.0000000e+00 
-1.1391165e-02 -2.2615075e-01 0.0000000e+00 
-2.4346805e-02 -2.3036350e-01 0.0000000e+00 
-2.0206931e-02 -2.3079060e-01 0.0000000e+00 
-1.6068860e-02 -2.3122339e-01 0.0000000e+00 
-1.1931444e-02 -2.3166211e-01 0.0000000e+00 
-2.4959738e-02 -2.3589032e-01 0.0000000e+00 
-2.0798208e-02 -2.3632225e-01 0.0000000e+00 
-1.6638427e-02 -2.3675964e-01 0.0000000e+00 
-1.2479271e-02 -2.3720274e-01 0.0000000e+00 
-2.5577418e-02 -2.4144572e-01 0.0000000e+00 
-2.1395086e-02 -2.4188231e-01 0.0000000e+00 
-1.7214450e-02 -2.4232415e-01 0.0000000e+00 
-1.3034410e-02 -2.4277147e-01 0.0000000e+00 
-2.6199661e-02 -2.4702857e-01 0.0000000e+00 
-2.1997364e-02 -2.4746966e-01 0.0000000e+00 
-1.7796712e-02 -2.4791579e-01 0.0000000e+00 
-1.3596625e-02 -2.4836718e-01 0.0000000e+00 
-2.6826283e-02 -2.5263775e-01 0.0000000e+00 
-2.2604843e-02 -2.5308319e-01 0.0000000e+00 
-1.8384996e-02 -2.5353345e-01 0.0000000e+00 
-1.4165684e-02 -2.5398876e-01 0.0000000e+00 
-2.7457104e-02 -2.5827220e-01 0.0000000e+00 
-2.3217324e-02 -2.5872182e-01 0.0000000e+00 
-1.8979085e-02 -2.5917605e-01 0.0000000e+00 
-1.4741352e-02 -2.5963513e-01 0.0000000e+00 
-2.8091944e-02 -2.6393083e-01 0.0000000e+00 
-2.3834610e-02 -2.6438448e-01 0.0000000e+00 
-1.9578765e-02 -2.6484254e-01 0.0000000e+00 
-1.5323398e-02 -2.6530523e-01 0.0000000e+00 
-2.8730628e-02 -2.6961261e-01 0.0000000e+00 
-2.4456507e-02 -2.7007013e-01 0.0000000e+00 
-2.0183825e-02 -2.7053187e-01 0.0000000e+00 
-1.5911593e-02 -2.7099803e-01 0.0000000e+00 
-2.9372982e-02 -2.7531653e-01 0.0000000e+00 
-2.5082824e-02 -2.7577777e-01 0.0000000e+00 
-2.0794054e-02 -2.7624303e-01 0.0000000e+00 
-1.6505707e-02 -2.7671252e-01 0.0000000e+00 
-3.0018834e-02 -2.8104160e-01 0.0000000e+00 
-2.5713372e-02 -2.8150640e-01 0.0000000e+00 
-2.1409246e-02 -2.8197503e-01 0.0000000e+00 
-1.7105517e-02 -2.8244771e-01 0.0000000e+00 
-3.0668019e-02 -2.8678685e-01 0.0000000e+00 
-2.6347963e-02 -2.8725506e-01 0.0000000e+00 
-2.2029195e-02 -2.8772692e-01 0.0000000e+00 
-1.7710798e-02 -2.8820264e-01 0.0000000e+00 
-3.1320371e-02 -2.9255133e-01 0.0000000e+00 
-2.6986417e-02 -2.9302280e-01 0.0000000e+00 
-2.2653701e-02 -2.9349776e-01 0.0000000e+00 
-1.8321331e-02 -2.9397638e-01 0.0000000e+00 
-3.1975732e-02 -2.9833412e-01 0.0000000e+00 
-2.7628554e-02 -2.9880872e-01 0.0000000e+00 
-2.3282564e-02 -2.9928663e-01 0.0000000e+00 
-1.8936898e-02 -2.9976802e-01 0.0000000e+00 
-3.2633944e-02 -3.0413434e-01 0.0000000e+00 
-2.8274198e-02 -3.0461192e-01 0.0000000e+00 
-2.3915592e-02 -3.0509264e-01 0.0000000e+00 
-1.9557286e-02 -3.0557668e-01 0.0000000e+00 
-3.3294857e-02 -3.0995112e-01 0.0000000e+00 
-2.8923179e-02 -3.1043154e-01 0.0000000e+00 
-2.4552593e-02 -3.1091494e-01 0.0000000e+00 
-2.0182286e-02 -3.1140148e-01 0.0000000e+00 
-3.3958321e-02 -3.1578362e-01 0.0000000e+00 
-2.9575328e-02 -3.1626674e-01 0.0000000e+00 
-2.5193381e-02 -3.1675268e-01 0.0000000e+00 
-2.0811691e-02 -3.1724162e-01 0.0000000e+00 
-3.4624193e-02 -3.2163102e-01 0.0000000e+00 
-3.0230483e-02 -3.2211671e-01 0.0000000e+00 
-2.5837773e-02 -3.2260507e-01 0.0000000e+00 
-2.1445301e-02 -3.2309626e-01 0.0000000e+00 
-3.5292332e-02 -3.2749252e-01 0.0000000e+00 
-3.0888484e-02 -3.2798066e-01 0.0000000e+00 
-2.6485591e-02 -3.2847131e-01 0.0000000e+00 
-2.2082916e-02 -3.2896465e-01 0.0000000e+00 
-3.5962607e-02 -3.3336737e-01 0.0000000e+00 
-3.1549179e-02 -3.3385783e-01 0.0000000e+00 
-2.7136661e-02 -3.3435065e-01 0.0000000e+00 
-2.2724343e-02 -3.3484601e-01 0.0000000e+00 
-3.6634889e-02 -3.3925483e-01 0.0000000e+00 
-3.2212419e-02 -3.3974748e-01 0.0000000e+00 
-2.7790815e-02 -3.4024236e-01 0.0000000e+00 
-2.3369393e-02 -3.4073964e-01 0.0000000e+00 
-3.7309055e-02 -3.4515419e-01 0.0000000e+00 
-3.2878059e-02 -3.4564891e-01 0.0000000e+00 
-2.8447888e-02 -3.4614573e-01 0.0000000e+00 
-2.4017883e-02 -3.4664482e-01 0.0000000e+00 
-3.7984986e-02 -3.5106476e-01 0.0000000e+00 
-3.3545962e-02 -3.5156144e-01 0.0000000e+00 
-2.9107722e-02 -3.5206010e-01 0.0000000e+00 
-2.4669633e-02 -3.5256088e-01 0.0000000e+00 
-3.8662568e-02 -3.5698588e-01 0.0000000e+00 
-3.4215994e-02 -3.5748441e-01 0.0000000e+00 
-2.9770164e-02 -3.5798480e-01 0.0000000e+00 
-2.5324471e-02 -3.5848719e-01 0.0000000e+00 
-3.9341691e-02 -3.6291693e-01 0.0000000e+00 
-3.4888026e-02 -3.6341720e-01 0.0000000e+00 
-3.0435065e-02 -3.6391922e-01 0.0000000e+00 
-2.5982228e-02 -3.6442311e-01 0.0000000e+00 
-4.0022251e-02 -3.6885731e-01 0.0000000e+00 
-3.5561934e-02 -3.6935921e-01 0.0000000e+00 
-3.1102283e-02 -3.6986276e-01 0.0000000e+00 
-2.6642744e-02 -3.7036806e-01 0.0000000e+00 
-4.0704149e-02 -3.7480642e-01 0.0000000e+00 
-3.6237600e-02 -3.7530986e-01 0.0000000e+00 
-3.1771680e-02 -3.7581484e-01 0.0000000e+00 
-2.7305861e-02 -3.7632147e-01 0.0000000e+00 
-4.1387290e-02 -3.8076371e-01 0.0000000e+00 
-3.6914909e-02 -3.8126861e-01 0.0000000e+00 
-3.2443124e-02 -3.8177493e-01 0.0000000e+00 
-2.7971428e-02 -3.8228280e-01 0.0000000e+00 
-4.2071583e-02 -3.8672867e-01 0.0000000e+00 
-3.7593755e-02 -3.8723491e-01 0.0000000e+00 
-3.3116488e-02 -3.8774249e-01 0.0000000e+00 
-2.8639300e-02 -3.8825152e-01 0.0000000e+00 
-4.2756942e-02 -3.9270077e-01 0.0000000e+00 
-3.8274032e-02 -3.9320828e-01 0.0000000e+00 
-3.3791651e-02 -3.9371704e-01 0.0000000e+00 
-2.9309338e-02 -3.9422714e-01 0.0000000e+00 
-4.3443288e-02 -3.9867954e-01 0.0000000e+00 
-3.8955642e-02 -3.9918824e-01 0.0000000e+00 
-3.4468494e-02 -3.9969809e-01 0.0000000e+00 
-2.9981407e-02 -4.0020920e-01 0.0000000e+00 
-4.4130543e-02 -4.0466452e-01 0.0000000e+00 
-3.9638492e-02 -4.0517432e-01 0.0000000e+00 
-3.5146908e-02 -4.0568519e-01 0.0000000e+00 
-3.0655376e-02 -4.0619724e-01 0.0000000e+00 
-4.4818638e-02 -4.1065528e-01 0.0000000e+00 
-4.0322493e-02 -4.1116610e-01 0.0000000e+00 
-3.5826784e-02 -4.1167793e-01 0.0000000e+00 
-3.1331123e-02 -4.1219084e-01 0.0000000e+00 
-4.5507509e-02 -4.1665140e-01 0.0000000e+00 
-4.1007563e-02 -4.1716318e-01 0.0000000e+00 
-3.6508024e-02 -4.1767589e-01 0.0000000e+00 
-3.2008527e-02 -4.1818961e-01 0.0000000e+00 
-4.6197094e-02 -4.2265250e-01 0.0000000e+00 
-4.1693622e-02 -4.2316518e-01 0.0000000e+00 
-3.7190531e-02 -4.2367870e-01 0.0000000e+00 
-3.2687476e-02 -4.2419317e-01 0.0000000e+00 
-4.6887336e-02 -4.2865822e-01 0.0000000e+00 
-4.2380598e-02 -4.2917172e-01 0.0000000e+00 
-3.7874215e-02 -4.2968601e-01 0.0000000e+00 
-3.3367864e-02 -4.3020117e-01 0.0000000e+00 
-4.7578184e-02 -4.3466822e-01 0.0000000e+00 
-4.3068422e-02 -4.3518248e-01 0.0000000e+00 
-3.8558991e-02 -4.3569748e-01 0.0000000e+00 
-3.4049589e-02 -4.3621328e-01 0.0000000e+00 
-4.8269587e-02 -4.4068218e-01 0.0000000e+00 
-4.3757030e-02 -4.4119715e-01 0.0000000e+00 
-3.9244780e-02 -4.4171279e-01 0.0000000e+00 
-3.4732555e-02 -4.4222918e-01 0.0000000e+00 
-4.8961503e-02 -4.4669979e-01 0.0000000e+00 
-4.4446362e-02 -4.4721541e-01 0.0000000e+00 
-3.9931505e-02 -4.4773167e-01 0.0000000e+00 
-3.5416672e-02 -4.4824860e-01 0.0000000e+00 
-4.9653890e-02 -4.5272078e-01 0.0000000e+00 
-4.5136361e-02 -4.5323701e-01 0.0000000e+00 
-4.0619098e-02 -4.5375382e-01 0.0000000e+00 
-3.6101855e-02 -4.5427127e-01 0.0000000e+00 
-5.0346709e-02 -4.5874489e-01 0.0000000e+00 
-4.5826977e-02 -4.5926169e-01 0.0000000e+00 
-4.1307491e-02 -4.5977902e-01 0.0000000e+00 
-3.6788024e-02 -4.6029693e-01 0.0000000e+00 
-5.1039924e-02 -4.6477189e-01 0.0000000e+00 
-4.6518161e-02 -4.6528920e-01 0.0000000e+00 
-4.1996626e-02 -4.6580701e-01 0.0000000e+00 
-3.7475107e-02 -4.6632535e-01 0.0000000e+00 
-5.1733505e-02 -4.7080154e-01 0.0000000e+00 
-4.7209869e-02 -4.7131933e-01 0.0000000e+00 
-4.2686443e-02 -4.7183758e-01 0.0000000e+00 
-3.8163033e-02 -4.7235631e-01 0.0000000e+00 
-5.2427420e-02 -4.7683364e-01 0.0000000e+00 
-4.7902058e-02 -4.7735187e-01 0.0000000e+00 
-4.3376891e-02 -4.7787052e-01 0.0000000e+00 
-3.8851738e-02 -4.7838963e-01 0.0000000e+00 