# vtk DataFile Version 4.0
vtk output
ASCII
DATASET UNSTRUCTURED_GRID
POINTS 604 float
5.5000000e+00 5.9700000e+00 0.0000000e+00 
5.5000000e+00 5.9900000e+00 0.0000000e+00 
5.5266667e+00 5.9700000e+00 0.0000000e+00 
5.5266667e+00 5.9900000e+00 0.0000000e+00 
5.5000000e+00 6.0100000e+00 0.0000000e+00 
5.5266667e+00 6.0100000e+00 0.0000000e+00 
5.5533333e+00 5.9700000e+00 0.0000000e+00 
5.5533333e+00 5.9900000e+00 0.0000000e+00 
5.5000000e+00 6.0300000e+00 0.0000000e+00 
5.5266667e+00 6.0300000e+00 0.0000000e+00 
5.5533333e+00 6.0100000e+00 0.0000000e+00 
5.5800000e+00 5.9700000e+00 0.0000000e+00 
5.5533333e+00 6.0300000e+00 0.0000000e+00 
5.5800000e+00 5.9900000e+00 0.0000000e+00 
5.5800000e+00 6.0100000e+00 0.0000000e+00 
5.5800000e+00 6.0300000e+00 0.0000000e+00 
5.6066667e+00 5.9700000e+00 0.0000000e+00 
5.6066667e+00 5.9900000e+00 0.0000000e+00 
5.6066667e+00 6.0100000e+00 0.0000000e+00 
5.6066667e+00 6.0300000e+00 0.0000000e+00 
5.6333333e+00 5.9700000e+00 0.0000000e+00 
5.6333333e+00 5.9900000e+00 0.0000000e+00 
5.6333333e+00 6.0100000e+00 0.0000000e+00 
5.6333333e+00 6.0300000e+00 0.0000000e+00 
5.6600000e+00 5.9700000e+00 0.0000000e+00 
5.6600000e+00 5.9900000e+00 0.0000000e+00 
5.6600000e+00 6.0100000e+00 0.0000000e+00 
5.6600000e+00 6.0300000e+00 0.0000000e+00 
5.6866667e+00 5.9700000e+00 0.0000000e+00 
5.6866667e+00 5.9900000e+00 0.0000000e+00 
5.6866667e+00 6.0100000e+00 0.0000000e+00 
5.6866667e+00 6.0300000e+00 0.0000000e+00 
5.7133333e+00 5.9700000e+00 0.0000000e+00 
5.7133333e+00 5.9900000e+00 0.0000000e+00 
5.7133333e+00 6.0100000e+00 0.0000000e+00 
5.7133333e+00 6.0300000e+00 0.0000000e+00 
5.7400000e+00 5.9700000e+00 0.0000000e+00 
5.7400000e+00 5.9900000e+00 0.0000000e+00 
5.7400000e+00 6.0100000e+00 0.0000000e+00 
5.7400000e+00 6.0300000e+00 0.0000000e+00 
5.7666667e+00 5.9700000e+00 0.0000000e+00 
5.7666667e+00 5.9900000e+00 0.0000000e+00 
5.7666667e+00 6.0100000e+00 0.0000000e+00 
5.7666667e+00 6.0300000e+00 0.0000000e+00 
5.7933333e+00 5.9700000e+00 0.0000000e+00 
5.7933333e+00 5.9900000e+00 0.0000000e+00 
5.7933333e+00 6.0100000e+00 0.0000000e+00 
5.7933333e+00 6.0300000e+00 0.0000000e+00 
5.8200000e+00 5.9700000e+00 0.0000000e+00 
5.8200000e+00 5.9900000e+00 0.0000000e+00 
5.8200000e+00 6.0100000e+00 0.0000000e+00 
5.8200000e+00 6.0300000e+00 0.0000000e+00 
5.8466667e+00 5.9700000e+00 0.0000000e+00 
5.8466667e+00 5.9900000e+00 0.0000000e+00 
5.8466667e+00 6.0100000e+00 0.0000000e+00 
5.8466667e+00 6.0300000e+00 0.0000000e+00 
5.8733333e+00 5.9700000e+00 0.0000000e+00 
5.8733333e+00 5.9900000e+00 0.0000000e+00 
5.8733333e+00 6.0100000e+00 0.0000000e+00 
5.8733333e+00 6.0300000e+00 0.0000000e+00 
5.9000000e+00 5.9700000e+00 0.0000000e+00 
5.9000000e+00 5.9900000e+00 0.0000000e+00 
5.9000000e+00 6.0100000e+00 0.0000000e+00 
5.9000000e+00 6.0300000e+00 0.0000000e+00 
5.9266667e+00 5.9700000e+00 0.0000000e+00 
5.9266667e+00 5.9900000e+00 0.0000000e+00 
5.9266667e+00 6.0100000e+00 0.0000000e+00 
5.9266667e+00 6.0300000e+00 0.0000000e+00 
5.9533333e+00 5.9700000e+00 0.0000000e+00 
5.9533333e+00 5.9900000e+00 0.0000000e+00 
5.9533333e+00 6.0100000e+00 0.0000000e+00 
5.9533333e+00 6.0300000e+00 0.0000000e+00 
5.9800000e+00 5.9700000e+00 0.0000000e+00 
5.9800000e+00 5.9900000e+00 0.0000000e+00 
5.9800000e+00 6.0100000e+00 0.0000000e+00 
5.9800000e+00 6.0300000e+00 0.0000000e+00 
6.0066667e+00 5.9700000e+00 0.0000000e+00 
6.0066667e+00 5.9900000e+00 0.0000000e+00 
6.0066667e+00 6.0100000e+00 0.0000000e+00 
6.0066667e+00 6.0300000e+00 0.0000000e+00 
6.0333333e+00 5.9700000e+00 0.0000000e+00 
6.0333333e+00 5.9900000e+00 0.0000000e+00 
6.0333333e+00 6.0100000e+00 0.0000000e+00 
6.0333333e+00 6.0300000e+00 0.0000000e+00 
6.0600000e+00 5.9700000e+00 0.0000000e+00 
6.0600000e+00 5.9900000e+00 0.0000000e+00 
6.0600000e+00 6.0100000e+00 0.0000000e+00 
6.0600000e+00 6.0300000e+00 0.0000000e+00 
6.0866667e+00 5.9700000e+00 0.0000000e+00 
6.0866667e+00 5.9900000e+00 0.0000000e+00 
6.0866667e+00 6.0100000e+00 0.0000000e+00 
6.0866667e+00 6.0300000e+00 0.0000000e+00 
6.1133333e+00 5.9700000e+00 0.0000000e+00 
6.1133333e+00 5.9900000e+00 0.0000000e+00 
6.1133333e+00 6.0100000e+00 0.0000000e+00 
6.1133333e+00 6.0300000e+00 0.0000000e+00 
6.1400000e+00 5.9700000e+00 0.0000000e+00 
6.1400000e+00 5.9900000e+00 0.0000000e+00 
6.1400000e+00 6.0100000e+00 0.0000000e+00 
6.1400000e+00 6.0300000e+00 0.0000000e+00 
6.1666667e+00 5.9700000e+00 0.0000000e+00 
6.1666667e+00 5.9900000e+00 0.0000000e+00 
6.1666667e+00 6.0100000e+00 0.0000000e+00 
6.1666667e+00 6.0300000e+00 0.0000000e+00 
6.1933333e+00 5.9700000e+00 0.0000000e+00 
6.1933333e+00 5.9900000e+00 0.0000000e+00 
6.1933333e+00 6.0100000e+00 0.0000000e+00 
6.1933333e+00 6.0300000e+00 0.0000000e+00 
6.2200000e+00 5.9700000e+00 0.0000000e+00 
6.2200000e+00 5.9900000e+00 0.0000000e+00 
6.2200000e+00 6.0100000e+00 0.0000000e+00 
6.2200000e+00 6.0300000e+00 0.0000000e+00 
6.2466667e+00 5.9700000e+00 0.0000000e+00 
6.2466667e+00 5.9900000e+00 0.0000000e+00 
6.2466667e+00 6.0100000e+00 0.0000000e+00 
6.2466667e+00 6.0300000e+00 0.0000000e+00 
6.2733333e+00 5.9700000e+00 0.0000000e+00 
6.2733333e+00 5.9900000e+00 0.0000000e+00 
6.2733333e+00 6.0100000e+00 0.0000000e+00 
6.2733333e+00 6.0300000e+00 0.0000000e+00 
6.3000000e+00 5.9700000e+00 0.0000000e+00 
6.3000000e+00 5.9900000e+00 0.0000000e+00 
6.3000000e+00 6.0100000e+00 0.0000000e+00 
6.3000000e+00 6.0300000e+00 0.0000000e+00 
6.3266667e+00 5.9700000e+00 0.0000000e+00 
6.3266667e+00 5.9900000e+00 0.0000000e+00 
6.3266667e+00 6.0100000e+00 0.0000000e+00 
6.3266667e+00 6.0300000e+00 0.0000000e+00 
6.3533333e+00 5.9700000e+00 0.0000000e+00 
6.3533333e+00 5.9900000e+00 0.0000000e+00 
6.3533333e+00 6.0100000e+00 0.0000000e+00 
6.3533333e+00 6.0300000e+00 0.0000000e+00 
6.3800000e+00 5.9700000e+00 0.0000000e+00 
6.3800000e+00 5.9900000e+00 0.0000000e+00 
6.3800000e+00 6.0100000e+00 0.0000000e+00 
6.3800000e+00 6.0300000e+00 0.0000000e+00 
6.4066667e+00 5.9700000e+00 0.0000000e+00 
6.4066667e+00 5.9900000e+00 0.0000000e+00 
6.4066667e+00 6.0100000e+00 0.0000000e+00 
6.4066667e+00 6.0300000e+00 0.0000000e+00 
6.4333333e+00 5.9700000e+00 0.0000000e+00 
6.4333333e+00 5.9900000e+00 0.0000000e+00 
6.4333333e+00 6.0100000e+00 0.0000000e+00 
6.4333333e+00 6.0300000e+00 0.0000000e+00 
6.4600000e+00 5.9700000e+00 0.0000000e+00 
6.4600000e+00 5.9900000e+00 0.0000000e+00 
6.4600000e+00 6.0100000e+00 0.0000000e+00 
6.4600000e+00 6.0300000e+00 0.0000000e+00 
6.4866667e+00 5.9700000e+00 0.0000000e+00 
6.4866667e+00 5.9900000e+00 0.0000000e+00 
6.4866667e+00 6.0100000e+00 0.0000000e+00 
6.4866667e+00 6.0300000e+00 0.0000000e+00 
6.5133333e+00 5.9700000e+00 0.0000000e+00 
6.5133333e+00 5.9900000e+00 0.0000000e+00 
6.5133333e+00 6.0100000e+00 0.0000000e+00 
6.5133333e+00 6.0300000e+00 0.0000000e+00 
6.5400000e+00 5.9700000e+00 0.0000000e+00 
6.5400000e+00 5.9900000e+00 0.0000000e+00 
6.5400000e+00 6.0100000e+00 0.0000000e+00 
6.5400000e+00 6.0300000e+00 0.0000000e+00 
6.5666667e+00 5.9700000e+00 0.0000000e+00 
6.5666667e+00 5.9900000e+00 0.0000000e+00 
6.5666667e+00 6.0100000e+00 0.0000000e+00 
6.5666667e+00 6.0300000e+00 0.0000000e+00 
6.5933333e+00 5.9700000e+00 0.0000000e+00 
6.5933333e+00 5.9900000e+00 0.0000000e+00 
6.5933333e+00 6.0100000e+00 0.0000000e+00 
6.5933333e+00 6.0300000e+00 0.0000000e+00 
6.6200000e+00 5.9700000e+00 0.0000000e+00 
6.6200000e+00 5.9900000e+00 0.0000000e+00 
6.6200000e+00 6.0100000e+00 0.0000000e+00 
6.6200000e+00 6.0300000e+00 0.0000000e+00 
6.6466667e+00 5.9700000e+00 0.0000000e+00 
6.6466667e+00 5.9900000e+00 0.0000000e+00 
6.6466667e+00 6.0100000e+00 0.0000000e+00 
6.6466667e+00 6.0300000e+00 0.0000000e+00 
6.6733333e+00 5.9700000e+00 0.0000000e+00 
6.6733333e+00 5.9900000e+00 0.0000000e+00 
6.6733333e+00 6.0100000e+00 0.0000000e+00 
6.6733333e+00 6.0300000e+00 0.0000000e+00 
6.7000000e+00 5.9700000e+00 0.0000000e+00 
6.7000000e+00 5.9900000e+00 0.0000000e+00 
6.7000000e+00 6.0100000e+00 0.0000000e+00 
6.7000000e+00 6.0300000e+00 0.0000000e+00 
6.7266667e+00 5.9700000e+00 0.0000000e+00 
6.7266667e+00 5.9900000e+00 0.0000000e+00 
6.7266667e+00 6.0100000e+00 0.0000000e+00 
6.7266667e+00 6.0300000e+00 0.0000000e+00 
6.7533333e+00 5.9700000e+00 0.0000000e+00 
6.7533333e+00 5.9900000e+00 0.0000000e+00 
6.7533333e+00 6.0100000e+00 0.0000000e+00 
6.7533333e+00 6.0300000e+00 0.0000000e+00 
6.7800000e+00 5.9700000e+00 0.0000000e+00 
6.7800000e+00 5.9900000e+00 0.0000000e+00 
6.7800000e+00 6.0100000e+00 0.0000000e+00 
6.7800000e+00 6.0300000e+00 0.0000000e+00 
6.8066667e+00 5.9700000e+00 0.0000000e+00 
6.8066667e+00 5.9900000e+00 0.0000000e+00 
6.8066667e+00 6.0100000e+00 0.0000000e+00 
6.8066667e+00 6.0300000e+00 0.0000000e+00 
6.8333333e+00 5.9700000e+00 0.0000000e+00 
6.8333333e+00 5.9900000e+00 0.0000000e+00 
6.8333333e+00 6.0100000e+00 0.0000000e+00 
6.8333333e+00 6.0300000e+00 0.0000000e+00 
6.8600000e+00 5.9700000e+00 0.0000000e+00 
6.8600000e+00 5.9900000e+00 0.0000000e+00 
6.8600000e+00 6.0100000e+00 0.0000000e+00 
6.8600000e+00 6.0300000e+00 0.0000000e+00 
6.8866667e+00 5.9700000e+00 0.0000000e+00 
6.8866667e+00 5.9900000e+00 0.0000000e+00 
6.8866667e+00 6.0100000e+00 0.0000000e+00 
6.8866667e+00 6.0300000e+00 0.0000000e+00 
6.9133333e+00 5.9700000e+00 0.0000000e+00 
6.9133333e+00 5.9900000e+00 0.0000000e+00 
6.9133333e+00 6.0100000e+00 0.0000000e+00 
6.9133333e+00 6.0300000e+00 0.0000000e+00 
6.9400000e+00 5.9700000e+00 0.0000000e+00 
6.9400000e+00 5.9900000e+00 0.0000000e+00 
6.9400000e+00 6.0100000e+00 0.0000000e+00 
6.9400000e+00 6.0300000e+00 0.0000000e+00 
6.9666667e+00 5.9700000e+00 0.0000000e+00 
6.9666667e+00 5.9900000e+00 0.0000000e+00 
6.9666667e+00 6.0100000e+00 0.0000000e+00 
6.9666667e+00 6.0300000e+00 0.0000000e+00 
6.9933333e+00 5.9700000e+00 0.0000000e+00 
6.9933333e+00 5.9900000e+00 0.0000000e+00 
6.9933333e+00 6.0100000e+00 0.0000000e+00 
6.9933333e+00 6.0300000e+00 0.0000000e+00 
7.0200000e+00 5.9700000e+00 0.0000000e+00 
7.0200000e+00 5.9900000e+00 0.0000000e+00 
[...]
POINT_DATA 604
FIELD FieldData 2
DISPLACEMENT 3 604  float
0.0000000e+00 0.0000000e+00 0.0000000e+00 
0.0000000e+00 0.0000000e+00 0.0000000e+00 
-1.4472177e-04 -8.6229794e-05 0.0000000e+00 
-4.6319790e-05 -5.6190057e-05 0.0000000e+00 
0.0000000e+00 0.0000000e+00 0.0000000e+00 
4.5365687e-05 -5.6504172e-05 0.0000000e+00 
-2.9271322e-04 -2.7730726e-04 0.0000000e+00 
-9.8535307e-05 -2.5330069e-04 0.0000000e+00 
0.0000000e+00 0.0000000e+00 0.0000000e+00 
1.4357717e-04 -8.7077399e-05 0.0000000e+00 
9.5403818e-05 -2.5437611e-04 0.0000000e+00 
-4.4012713e-04 -6.0106676e-04 0.0000000e+00 
2.8910216e-04 -2.8039501e-04 0.0000000e+00 
-1.4882952e-04 -5.7801363e-04 0.0000000e+00 
1.4103599e-04 -5.8023906e-04 0.0000000e+00 
4.3157764e-04 -6.0762839e-04 0.0000000e+00 
-5.8714328e-04 -1.0515567e-03 0.0000000e+00 
-2.0063969e-04 -1.0305464e-03 0.0000000e+00 
1.8445339e-04 -1.0343712e-03 0.0000000e+00 
5.6998054e-04 -1.0629371e-03 0.0000000e+00 
-7.3446436e-04 -1.6273589e-03 0.0000000e+00 
-2.5412335e-04 -1.6087422e-03 0.0000000e+00 
2.2469344e-04 -1.6145891e-03 0.0000000e+00 
7.0384514e-04 -1.6448157e-03 0.0000000e+00 
-8.8263111e-04 -2.3265725e-03 0.0000000e+00 
-3.0987572e-04 -2.3107532e-03 0.0000000e+00 
2.6126037e-04 -2.3190210e-03 0.0000000e+00 
8.3262237e-04 -2.3513042e-03 0.0000000e+00 
-1.0321754e-03 -3.1473518e-03 0.0000000e+00 
-3.6841550e-04 -3.1347072e-03 0.0000000e+00 
2.9363385e-04 -3.1457759e-03 0.0000000e+00 
9.5580622e-04 -3.1804979e-03 0.0000000e+00 
-1.1836030e-03 -4.0878557e-03 0.0000000e+00 
-4.3024109e-04 -4.0787450e-03 0.0000000e+00 
3.2132402e-04 -4.0929760e-03 0.0000000e+00 
1.0729140e-03 -4.1305002e-03 0.0000000e+00 
-1.3373954e-03 -5.1462534e-03 0.0000000e+00 
-4.9582578e-04 -5.1410175e-03 0.0000000e+00 
3.4386537e-04 -5.1587540e-03 0.0000000e+00 
1.1834880e-03 -5.1994254e-03 0.0000000e+00 
-1.4940097e-03 -6.3207241e-03 0.0000000e+00 
-5.6561891e-04 -6.3196860e-03 0.0000000e+00 
3.6081662e-04 -6.3412533e-03 0.0000000e+00 
1.2870948e-03 -6.3853992e-03 0.0000000e+00 
-1.6538805e-03 -7.6094571e-03 0.0000000e+00 
-6.4004627e-04 -7.6129225e-03 0.0000000e+00 
3.7175993e-04 -7.6386284e-03 0.0000000e+00 
1.3833246e-03 -7.6865586e-03 0.0000000e+00 
-1.8174183e-03 -9.0106518e-03 0.0000000e+00 
-7.1951091e-04 -9.0189093e-03 0.0000000e+00 
3.7630053e-04 -9.0490447e-03 0.0000000e+00 
1.4717904e-03 -9.1010522e-03 0.0000000e+00 
-1.9850125e-03 -1.0522518e-02 0.0000000e+00 
-8.0439344e-04 -1.0535839e-02 0.0000000e+00 
3.7406601e-04 -1.0570679e-02 0.0000000e+00 
1.5521283e-03 -1.0627040e-02 0.0000000e+00 
-2.1570307e-03 -1.2143276e-02 0.0000000e+00 
-8.9505294e-04 -1.2161917e-02 0.0000000e+00 
3.6470589e-04 -1.2201718e-02 0.0000000e+00 
1.6239959e-03 -1.2262694e-02 0.0000000e+00 
-2.3338198e-03 -1.3871156e-02 0.0000000e+00 
-9.9182721e-04 -1.3895357e-02 0.0000000e+00 
3.4789091e-04 -1.3940364e-02 0.0000000e+00 
1.6870728e-03 -1.4006197e-02 0.0000000e+00 
-2.5157055e-03 -1.5704401e-02 0.0000000e+00 
-1.0950335e-03 -1.5734388e-02 0.0000000e+00 
3.2331258e-04 -1.5784825e-02 0.0000000e+00 
1.7410589e-03 -1.5855747e-02 0.0000000e+00 
-2.7029937e-03 -1.7641265e-02 0.0000000e+00 
-1.2049689e-03 -1.7677245e-02 0.0000000e+00 
2.9068258e-04 -1.7733327e-02 0.0000000e+00 
1.7856745e-03 -1.7809551e-02 0.0000000e+00 
-2.8959715e-03 -1.9680010e-02 0.0000000e+00 
-1.3219111e-03 -1.9722181e-02 0.0000000e+00 
2.4973222e-04 -1.9784105e-02 0.0000000e+00 
1.8206600e-03 -1.9865831e-02 0.0000000e+00 
-3.0949063e-03 -2.1818914e-02 0.0000000e+00 
-1.4461187e-03 -2.1867455e-02 0.0000000e+00 
2.0021197e-04 -2.1935405e-02 0.0000000e+00 
1.8457746e-03 -2.2022820e-02 0.0000000e+00 
-3.3000475e-03 -2.4056263e-02 0.0000000e+00 
-1.5778318e-03 -2.4111342e-02 0.0000000e+00 
1.4189093e-04 -2.4185488e-02 0.0000000e+00 
1.8607965e-03 -2.4278763e-02 0.0000000e+00 
-3.5116278e-03 -2.6390356e-02 0.0000000e+00 
-1.7172728e-03 -2.6452128e-02 0.0000000e+00 
7.4556248e-05 -2.6532626e-02 0.0000000e+00 
1.8655227e-03 -2.6631922e-02 0.0000000e+00 
-3.7298614e-03 -2.8819506e-02 0.0000000e+00 
-1.8646466e-03 -2.8888111e-02 0.0000000e+00 
-1.9874336e-06 -2.8975105e-02 0.0000000e+00 
1.8597670e-03 -2.9080567e-02 0.0000000e+00 
-3.9549453e-03 -3.1342035e-02 0.0000000e+00 
-2.0201409e-03 -3.1417603e-02 0.0000000e+00 
-8.7918476e-05 -3.1511224e-02 0.0000000e+00 
1.8433603e-03 -3.1622985e-02 0.0000000e+00 
-4.1870607e-03 -3.3956279e-02 0.0000000e+00 
-2.1839268e-03 -3.4038926e-02 0.0000000e+00 
-1.8339885e-04 -3.4139293e-02 0.0000000e+00 
1.8161501e-03 -3.4257475e-02 0.0000000e+00 
-4.4263705e-03 -3.6660586e-02 0.0000000e+00 
-2.3561594e-03 -3.6750416e-02 0.0000000e+00 
-2.8857433e-04 -3.6857636e-02 0.0000000e+00 
1.7779991e-03 -3.6982348e-02 0.0000000e+00 
-4.6730245e-03 -3.9453313e-02 0.0000000e+00 
-2.5369782e-03 -3.9550419e-02 0.0000000e+00 
-4.0357513e-04 -3.9664589e-02 0.0000000e+00 
1.7287866e-03 -3.9795929e-02 0.0000000e+00 
-4.9271564e-03 -4.2332833e-02 0.0000000e+00 
-2.7265075e-03 -4.2437297e-02 0.0000000e+00 
-5.2851620e-04 -4.2558499e-02 0.0000000e+00 
1.6684070e-03 -4.2696554e-02 0.0000000e+00 
-5.1888860e-03 -4.5297528e-02 0.0000000e+00 
-2.9248574e-03 -4.5409421e-02 0.0000000e+00 
-6.6349790e-04 -4.5537730e-02 0.0000000e+00 
1.5967695e-03 -4.5682576e-02 0.0000000e+00 
-5.4583185e-03 -4.8345793e-02 0.0000000e+00 
-3.1321235e-03 -4.8465175e-02 0.0000000e+00 
-8.0860633e-04 -4.8600654e-02 0.0000000e+00 
1.5137974e-03 -4.8752356e-02 0.0000000e+00 
-5.7355458e-03 -5.1476036e-02 0.0000000e+00 
-3.3483877e-03 -5.1602958e-02 0.0000000e+00 
-9.6391387e-04 -5.1745660e-02 0.0000000e+00 
1.4194280e-03 -5.1904274e-02 0.0000000e+00 
-6.0206460e-03 -5.4686677e-02 0.0000000e+00 
-3.5737188e-03 -5.4821179e-02 0.0000000e+00 
-1.1294796e-03 -5.4971147e-02 0.0000000e+00 
1.3136116e-03 -5.5136718e-02 0.0000000e+00 
-6.3136846e-03 -5.7976148e-02 0.0000000e+00 
-3.8081726e-03 -5.8118261e-02 0.0000000e+00 
-1.3053496e-03 -5.8275529e-02 0.0000000e+00 
1.1963115e-03 -5.8448094e-02 0.0000000e+00 
-6.6147149e-03 -6.1342894e-02 0.0000000e+00 
-4.0517922e-03 -6.1492640e-02 0.0000000e+00 
-1.4915576e-03 -6.1657232e-02 0.0000000e+00 
1.0675039e-03 -6.1836817e-02 0.0000000e+00 
-6.9237776e-03 -6.4785372e-02 0.0000000e+00 
-4.3046092e-03 -6.4942764e-02 0.0000000e+00 
-1.6881254e-03 -6.5114696e-02 0.0000000e+00 
9.2717642e-04 -6.5301319e-02 0.0000000e+00 
-7.2409023e-03 -6.8302052e-02 0.0000000e+00 
-4.5666434e-03 -6.8467094e-02 0.0000000e+00 
-1.8950626e-03 -6.8646372e-02 0.0000000e+00 
7.7532887e-04 -6.8840043e-02 0.0000000e+00 
-7.5661091e-03 -7.1891415e-02 0.0000000e+00 
-4.8379034e-03 -7.2064103e-02 0.0000000e+00 
-2.1123681e-03 -7.2250727e-02 0.0000000e+00 
6.1197322e-04 -7.2451447e-02 0.0000000e+00 
-7.8994057e-03 -7.5551958e-02 0.0000000e+00 
-5.1183874e-03 -7.5732281e-02 0.0000000e+00 
-2.3400299e-03 -7.5926241e-02 0.0000000e+00 
4.3713103e-04 -7.6134003e-02 0.0000000e+00 
-8.2407890e-03 -7.9282189e-02 0.0000000e+00 
-5.4080828e-03 -7.9470127e-02 0.0000000e+00 
-2.5780256e-03 -7.9671407e-02 0.0000000e+00 
2.5083427e-04 -7.9886197e-02 0.0000000e+00 
-8.5902466e-03 -8.3080629e-02 0.0000000e+00 
-5.7069667e-03 -8.3276155e-02 0.0000000e+00 
-2.8263230e-03 -8.3484730e-02 0.0000000e+00 
5.3125031e-05 -8.3706527e-02 0.0000000e+00 
-8.9477536e-03 -8.6945810e-02 0.0000000e+00 
-6.0150065e-03 -8.7148890e-02 0.0000000e+00 
-3.0848801e-03 -8.7364730e-02 0.0000000e+00 
-1.5594626e-04 -8.7593503e-02 0.0000000e+00 
-9.3132783e-03 -9.0876278e-02 0.0000000e+00 
-6.3321601e-03 -9.1086871e-02 0.0000000e+00 
-3.3536454e-03 -9.1309936e-02 0.0000000e+00 
-3.7631832e-04 -9.1545651e-02 0.0000000e+00 
-9.6867795e-03 -9.4870589e-02 0.0000000e+00 
-6.6583767e-03 -9.5088648e-02 0.0000000e+00 
-3.6325583e-03 -9.5318894e-02 0.0000000e+00 
-6.0792098e-04 -9.5561508e-02 0.0000000e+00 
-1.0068208e-02 -9.8927314e-02 0.0000000e+00 
-6.9935968e-03 -9.9152784e-02 0.0000000e+00 
-3.9215497e-03 -9.9390160e-02 0.0000000e+00 
-8.5067539e-04 -9.9639623e-02 0.0000000e+00 
-1.0457505e-02 -1.0304503e-01 0.0000000e+00 
-7.3377528e-03 -1.0327786e-01 0.0000000e+00 
-4.2205421e-03 -1.0352230e-01 0.0000000e+00 
-1.1044945e-03 -1.0377856e-01 0.0000000e+00 
-1.0854606e-02 -1.0722234e-01 0.0000000e+00 
-7.6907691e-03 -1.0746245e-01 0.0000000e+00 
-4.5294502e-03 -1.0771391e-01 0.0000000e+00 
-1.3692832e-03 -1.0797690e-01 0.0000000e+00 
-1.1259437e-02 -1.1145785e-01 0.0000000e+00 
-8.0525626e-03 -1.1170518e-01 0.0000000e+00 
-4.8481811e-03 -1.1196357e-01 0.0000000e+00 
-1.6449389e-03 -1.1223324e-01 0.0000000e+00 
-1.1671918e-02 -1.1575018e-01 0.0000000e+00 
-8.4230429e-03 -1.1600464e-01 0.0000000e+00 
-5.1766347e-03 -1.1626991e-01 0.0000000e+00 
-1.9313517e-03 -1.1654617e-01 0.0000000e+00 
-1.2091961e-02 -1.2009796e-01 0.0000000e+00 
-8.8021127e-03 -1.2035948e-01 0.0000000e+00 
-5.5147037e-03 -1.2063153e-01 0.0000000e+00 
-2.2284048e-03 -1.2091431e-01 0.0000000e+00 
-1.2519472e-02 -1.2449984e-01 0.0000000e+00 
-9.1896682e-03 -1.2476832e-01 0.0000000e+00 
-5.8622745e-03 -1.2504708e-01 0.0000000e+00 
-2.5359744e-03 -1.2533630e-01 0.0000000e+00 
-1.2954351e-02 -1.2895447e-01 0.0000000e+00 
-9.5855994e-03 -1.2922984e-01 0.0000000e+00 
-6.2192272e-03 -1.2951521e-01 0.0000000e+00 
-2.8539310e-03 -1.2981078e-01 0.0000000e+00 
-1.3396493e-02 -1.3346053e-01 0.0000000e+00 
-9.9897904e-03 -1.3374268e-01 0.0000000e+00 
-6.5854358e-03 -1.3403457e-01 0.0000000e+00 
-3.1821386e-03 -1.3433640e-01 0.0000000e+00 
-1.3845786e-02 -1.3801670e-01 0.0000000e+00 
-1.0402120e-02 -1.3830553e-01 0.0000000e+00 
-6.9607686e-03 -1.3860385e-01 0.0000000e+00 
-3.5204556e-03 -1.3891185e-01 0.0000000e+00 
-1.4302115e-02 -1.4262168e-01 0.0000000e+00 
-1.0822461e-02 -1.4291710e-01 0.0000000e+00 
-7.3450886e-03 -1.4322174e-01 0.0000000e+00 
-3.8687339e-03 -1.4353581e-01 0.0000000e+00 
-1.4765358e-02 -1.4727419e-01 0.0000000e+00 
-1.1250683e-02 -1.4757607e-01 0.0000000e+00 
-7.7382542e-03 -1.4788693e-01 0.0000000e+00 
-4.2268218e-03 -1.4820698e-01 0.0000000e+00 
-1.5235390e-02 -1.5197294e-01 0.0000000e+00 
-1.1686649e-02 -1.5228119e-01 0.0000000e+00 
-8.1401187e-03 -1.5259816e-01 0.0000000e+00 
-4.5945626e-03 -1.5292407e-01 0.0000000e+00 
-1.5712081e-02 -1.5671667e-01 0.0000000e+00 
-1.2130218e-02 -1.5703117e-01 0.0000000e+00 
-8.5505315e-03 -1.5735415e-01 0.0000000e+00 
-4.9717954e-03 -1.5768581e-01 0.0000000e+00 
-1.6195293e-02 -1.6150415e-01 0.0000000e+00 
-1.2581245e-02 -1.6182478e-01 0.0000000e+00 
-8.9693375e-03 -1.6215364e-01 0.0000000e+00 
-5.3583562e-03 -1.6249095e-01 0.0000000e+00 
-1.6684887e-02 -1.6633412e-01 0.0000000e+00 
-1.3039581e-02 -1.6666076e-01 0.0000000e+00 
-9.3963776e-03 -1.6699540e-01 0.0000000e+00 
-5.7540757e-03 -1.6733824e-01 0.0000000e+00 
-1.7180723e-02 -1.7120537e-01 0.0000000e+00 
-1.3505074e-02 -1.7153790e-01 0.0000000e+00 
-9.8314888e-03 -1.7187819e-01 0.0000000e+00 
-6.1587805e-03 -1.7222644e-01 0.0000000e+00 
-1.7682655e-02 -1.7611669e-01 0.0000000e+00 
-1.3977568e-02 -1.7645499e-01 0.0000000e+00 
-1.0274505e-02 -1.7680081e-01 0.0000000e+00 
-6.5722940e-03 -1.7715435e-01 0.0000000e+00 
-1.8190534e-02 -1.8106688e-01 0.0000000e+00 
-1.4456903e-02 -1.8141082e-01 0.0000000e+00 
-1.0725257e-02 -1.8176204e-01 0.0000000e+00 
-6.9944363e-03 -1.8212076e-01 0.0000000e+00 
-1.8704211e-02 -1.8605476e-01 0.0000000e+00 
-1.4942919e-02 -1.8640421e-01 0.0000000e+00 
-1.1183572e-02 -1.8676071e-01 0.0000000e+00 
-7.4250246e-03 -1.8712448e-01 0.0000000e+00 
-1.9223532e-02 -1.9107916e-01 0.0000000e+00 
-1.5435453e-02 -1.9143399e-01 0.0000000e+00 
-1.1649277e-02 -1.9179565e-01 0.0000000e+00 
-7.8638734e-03 -1.9216434e-01 0.0000000e+00 
-1.9748344e-02 -1.9613893e-01 0.0000000e+00 
-1.5934338e-02 -1.9649901e-01 0.0000000e+00 
-1.2122193e-02 -1.9686570e-01 0.0000000e+00 
-8.3107946e-03 -1.9723919e-01 0.0000000e+00 
-2.0278489e-02 -2.0123294e-01 0.0000000e+00 
-1.6439407e-02 -2.0159813e-01 0.0000000e+00 
-1.2602143e-02 -2.0196971e-01 0.0000000e+00 
-8.7655985e-03 -2.0234787e-01 0.0000000e+00 
-2.0813813e-02 -2.0636005e-01 0.0000000e+00 
-1.6950491e-02 -2.0673023e-01 0.0000000e+00 
-1.3088946e-02 -2.0710656e-01 0.0000000e+00 
-9.2280919e-03 -2.0748927e-01 0.0000000e+00 
-2.1354157e-02 -2.1151917e-01 0.0000000e+00 
-1.7467421e-02 -2.1189419e-01 0.0000000e+00 
-1.3582419e-02 -2.1227515e-01 0.0000000e+00 
-9.6980819e-03 -2.1266227e-01 0.0000000e+00 
-2.1899360e-02 -2.1670919e-01 0.0000000e+00 
-1.7990024e-02 -2.1708892e-01 0.0000000e+00 
-1.4082381e-02 -2.1747438e-01 0.0000000e+00 
-1.0175374e-02 -2.1786579e-01 0.0000000e+00 
-2.2449263e-02 -2.2192905e-01 0.0000000e+00 
-1.8518130e-02 -2.2231334e-01 0.0000000e+00 
-1.4588648e-02 -2.2270317e-01 0.0000000e+00 
-1.0659773e-02 -2.2309873e-01 0.0000000e+00 
-2.3003703e-02 -2.2717767e-01 0.0000000e+00 
-1.9051565e-02 -2.2756640e-01 0.0000000e+00 
-1.5101034e-02 -2.2796046e-01 0.0000000e+00 
-1.1151084e-02 -2.2836004e-01 0.0000000e+00 
-2.3562518e-02 -2.3245402e-01 0.0000000e+00 
-1.9590155e-02 -2.3284705e-01 0.0000000e+00 
-1.5619356e-02 -2.3324520e-01 0.0000000e+00 
-1.1649110e-02 -2.3364867e-01 0.0000000e+00 
-2.4125546e-02 -2.3775706e-01 0.0000000e+00 
-2.0133726e-02 -2.3815424e-01 0.0000000e+00 
-1.6143427e-02 -2.3855635e-01 0.0000000e+00 
-1.2153654e-02 -2.3896358e-01 0.0000000e+00 
-2.4692628e-02 -2.4308577e-01 0.0000000e+00 
-2.0682106e-02 -2.4348697e-01 0.0000000e+00 
-1.6673062e-02 -2.4389291e-01 0.0000000e+00 
-1.2664517e-02 -2.4430377e-01 0.0000000e+00 
-2.5263602e-02 -2.4843915e-01 0.0000000e+00 
-2.1235122e-02 -2.4884424e-01 0.0000000e+00 
-1.7208076e-02 -2.4925387e-01 0.0000000e+00 
-1.3181501e-02 -2.4966822e-01 0.0000000e+00 
-2.5838310e-02 -2.5381622e-01 0.0000000e+00 
-2.1792601e-02 -2.5422506e-01 0.0000000e+00 
-1.7748283e-02 -2.5463824e-01 0.0000000e+00 
-1.3704411e-02 -2.5505597e-01 0.0000000e+00 
-2.6416591e-02 -2.5921602e-01 0.0000000e+00 
-2.2354372e-02 -2.5962847e-01 0.0000000e+00 
-1.8293500e-02 -2.6004508e-01 0.0000000e+00 
-1.4233047e-02 -2.6046604e-01 0.0000000e+00 
-2.6998290e-02 -2.6463759e-01 0.0000000e+00 
-2.2920265e-02 -2.6505352e-01 0.0000000e+00 
-1.8843543e-02 -2.6547342e-01 0.0000000e+00 
-1.4767215e-02 -2.6589749e-01 0.0000000e+00 
-2.7583250e-02 -2.7008001e-01 0.0000000e+00 
-2.3490110e-02 -2.7049927e-01 0.0000000e+00 
-1.9398230e-02 -2.7092233e-01 0.0000000e+00 
-1.5306718e-02 -2.7134938e-01 0.0000000e+00 
-2.8171317e-02 -2.7554235e-01 0.0000000e+00 
-2.4063740e-02 -2.7596481e-01 0.0000000e+00 
-1.9957380e-02 -2.7639091e-01 0.0000000e+00 
-1.5851363e-02 -2.7682081e-01 0.0000000e+00 
-2.8762340e-02 -2.8102371e-01 0.0000000e+00 
-2.4640989e-02 -2.8144926e-01 0.0000000e+00 
-2.0520814e-02 -2.8187826e-01 0.0000000e+00 
-1.6400956e-02 -2.8231089e-01 0.0000000e+00 
-2.9356168e-02 -2.8652323e-01 0.0000000e+00 
-2.5221694e-02 -2.8695172e-01 0.0000000e+00 
-2.1088353e-02 -2.8738349e-01 0.0000000e+00 
-1.6955306e-02 -2.8781873e-01 0.0000000e+00 
-2.9952653e-02 -2.9204004e-01 0.0000000e+00 
-2.5805693e-02 -2.9247134e-01 0.0000000e+00 
-2.1659823e-02 -2.9290577e-01 0.0000000e+00 
-1.7514223e-02 -2.9334349e-01 0.0000000e+00 
-3.0551653e-02 -2.9757330e-01 0.0000000e+00 
-2.6392827e-02 -2.9800728e-01 0.0000000e+00 
-2.2235049e-02 -2.9844423e-01 0.0000000e+00 
-1.8077519e-02 -2.9888432e-01 0.0000000e+00 
-3.1153025e-02 -3.0312218e-01 0.0000000e+00 
-2.6982940e-02 -3.0355873e-01 0.0000000e+00 
-2.2813861e-02 -3.0399808e-01 0.0000000e+00 
-1.8645008e-02 -3.0444041e-01 0.0000000e+00 
-3.1756629e-02 -3.0868588e-01 0.0000000e+00 
-2.7575877e-02 -3.0912487e-01 0.0000000e+00 
-2.3396091e-02 -3.0956651e-01 0.0000000e+00 
-1.9216508e-02 -3.1001097e-01 0.0000000e+00 
-3.2362330e-02 -3.1426363e-01 0.0000000e+00 
-2.8171487e-02 -3.1470492e-01 0.0000000e+00 
-2.3981572e-02 -3.1514873e-01 0.0000000e+00 
-1.9791839e-02 -3.1559521e-01 0.0000000e+00 
-3.2969989e-02 -3.1985464e-01 0.0000000e+00 
-2.8769622e-02 -3.2029814e-01 0.0000000e+00 
-2.4570142e-02 -3.2074399e-01 0.0000000e+00 
-2.0370824e-02 -3.2119237e-01 0.0000000e+00 
-3.3579477e-02 -3.2545818e-01 0.0000000e+00 
-2.9370135e-02 -3.2590376e-01 0.0000000e+00 
-2.5161641e-02 -3.2635155e-01 0.0000000e+00 
-2.0953288e-02 -3.2680172e-01 0.0000000e+00 
-3.4190666e-02 -3.3107352e-01 0.0000000e+00 
-2.9972883e-02 -3.3152106e-01 0.0000000e+00 
-2.5755910e-02 -3.3197068e-01 0.0000000e+00 
-2.1539059e-02 -3.3242254e-01 0.0000000e+00 
-3.4803433e-02 -3.3669995e-01 0.0000000e+00 
-3.0577729e-02 -3.3714934e-01 0.0000000e+00 
-2.6352796e-02 -3.3760068e-01 0.0000000e+00 
-2.2127968e-02 -3.3805412e-01 0.0000000e+00 
-3.5417656e-02 -3.4233678e-01 0.0000000e+00 
-3.1184535e-02 -3.4278791e-01 0.0000000e+00 
-2.6952148e-02 -3.4324086e-01 0.0000000e+00 
-2.2719849e-02 -3.4369578e-01 0.0000000e+00 
-3.6033220e-02 -3.4798335e-01 0.0000000e+00 
-3.1793172e-02 -3.4843611e-01 0.0000000e+00 
-2.7553819e-02 -3.4889057e-01 0.0000000e+00 
-2.3314538e-02 -3.4934687e-01 0.0000000e+00 
-3.6650013e-02 -3.5363901e-01 0.0000000e+00 
-3.2403509e-02 -3.5409330e-01 0.0000000e+00 
-2.8157666e-02 -3.5454917e-01 0.0000000e+00 
-2.3911877e-02 -3.5500675e-01 0.0000000e+00 
-3.7267926e-02 -3.5930313e-01 0.0000000e+00 
-3.3015425e-02 -3.5975884e-01 0.0000000e+00 
-2.8763548e-02 -3.6021603e-01 0.0000000e+00 
-2.4511711e-02 -3.6067480e-01 0.0000000e+00 
-3.7886855e-02 -3.6497511e-01 0.0000000e+00 
-3.3628798e-02 -3.6543215e-01 0.0000000e+00 
-2.9371329e-02 -3.6589055e-01 0.0000000e+00 
-2.5113887e-02 -3.6635043e-01 0.0000000e+00 
-3.8506704e-02 -3.7065436e-01 0.0000000e+00 
-3.4243514e-02 -3.7111264e-01 0.0000000e+00 
-2.9980878e-02 -3.7157217e-01 0.0000000e+00 
-2.5718257e-02 -3.7203306e-01 0.0000000e+00 
-3.9127375e-02 -3.7634033e-01 0.0000000e+00 
-3.4859461e-02 -3.7679975e-01 0.0000000e+00 
-3.0592068e-02 -3.7726032e-01 0.0000000e+00 
-2.6324677e-02 -3.7772214e-01 0.0000000e+00 
-3.9748779e-02 -3.8203247e-01 0.0000000e+00 
-3.5476533e-02 -3.8249295e-01 0.0000000e+00 
-3.1204775e-02 -3.8295447e-01 0.0000000e+00 
-2.6933008e-02 -3.8341714e-01 0.0000000e+00 
-4.0370829e-02 -3.8773028e-01 0.0000000e+00 
-3.6094626e-02 -3.8819172e-01 0.0000000e+00 
-3.1818881e-02 -3.8865411e-01 0.0000000e+00 
-2.7543116e-02 -3.8911755e-01 0.0000000e+00 
-4.0993438e-02 -3.9343324e-01 0.0000000e+00 
-3.6713641e-02 -3.9389556e-01 0.0000000e+00 
-3.2434271e-02 -3.9435875e-01 0.0000000e+00 
-2.8154872e-02 -3.9482289e-01 0.0000000e+00 
-4.1616529e-02 -3.9914088e-01 0.0000000e+00 
-3.7333483e-02 -3.9960401e-01 0.0000000e+00 
-3.3050835e-02 -4.0006791e-01 0.0000000e+00 
-2.8768149e-02 -4.0053268e-01 0.0000000e+00 
-4.2240027e-02 -4.0485275e-01 0.0000000e+00 
-3.7954062e-02 -4.0531661e-01 0.0000000e+00 
-3.3668466e-02 -4.0578115e-01 0.0000000e+00 
-2.9382824e-02 -4.0624648e-01 0.0000000e+00 
-4.2863863e-02 -4.1056841e-01 0.0000000e+00 
-3.8575293e-02 -4.1103292e-01 0.0000000e+00 
-3.4287063e-02 -4.1149805e-01 0.0000000e+00 
-2.9998780e-02 -4.1196387e-01 0.0000000e+00 
-4.3487972e-02 -4.1628744e-01 0.0000000e+00 
-3.9197093e-02 -4.1675254e-01 0.0000000e+00 
-3.4906529e-02 -4.1721818e-01 0.0000000e+00 
-3.0615904e-02 -4.1768444e-01 0.0000000e+00 
-4.4112293e-02 -4.2200946e-01 0.0000000e+00 
-3.9819388e-02 -4.2247508e-01 0.0000000e+00 
-3.5526770e-02 -4.2294117e-01 0.0000000e+00 
-3.1234088e-02 -4.2340781e-01 0.0000000e+00 
-4.4736770e-02 -4.2773410e-01 0.0000000e+00 
-4.0442103e-02 -4.2820018e-01 0.0000000e+00 
-3.6147699e-02 -4.2866666e-01 0.0000000e+00 
-3.1853226e-02 -4.2913362e-01 0.0000000e+00 
-4.5361350e-02 -4.3346100e-01 0.0000000e+00 
-4.1065173e-02 -4.3392748e-01 0.0000000e+00 
-3.6769233e-02 -4.3439430e-01 0.0000000e+00 
-3.2473221e-02 -4.3486153e-01 0.0000000e+00 
-4.5985987e-02 -4.3918983e-01 0.0000000e+00 
-4.1688532e-02 -4.3965666e-01 0.0000000e+00 
-3.7391293e-02 -4.4012376e-01 0.0000000e+00 
-3.3093977e-02 -4.4059121e-01 0.0000000e+00 
-4.6610636e-02 -4.4492030e-01 0.0000000e+00 
-4.2312124e-02 -4.4538741e-01 0.0000000e+00 
-3.8013804e-02 -4.4585475e-01 0.0000000e+00 
-3.3715406e-02 -4.4632239e-01 0.0000000e+00 
-4.7235258e-02 -4.5065210e-01 0.0000000e+00 
-4.2935892e-02 -4.5111945e-01 0.0000000e+00 
-3.8636697e-02 -4.5158699e-01 0.0000000e+00 
-3.4337422e-02 -4.5205476e-01 0.0000000e+00 