# vtk DataFile Version 4.0
vtk output
ASCII
DATASET UNSTRUCTURED_GRID
POINTS 604 float
5.5000000e+00 5.9700000e+00 0.0000000e+00 
5.5000000e+00 5.9900000e+00 0.0000000e+00 
5.5266667e+00 5.9700000e+00 0.0000000e+00 
5.5266667e+00 5.9900000e+00 0.0000000e+00 
5.5000000e+00 6.0100000e+00 0.0000000e+00 
5.5266667e+00 6.0100000e+00 0.0000000e+00 
5.5533333e+00 5.9700000e+00 0.0000000e+00 
5.5533333e+00 5.9900000e+00 0.0000000e+00 
5.5000000e+00 6.0300000e+00 0.0000000e+00 
5.5266667e+00 6.0300000e+00 0.0000000e+00 
5.5533333e+00 6.0100000e+00 0.0000000e+00 
5.5800000e+00 5.9700000e+00 0.0000000e+00 
5.5533333e+00 6.0300000e+00 0.0000000e+00 
5.5800000e+00 5.9900000e+00 0.0000000e+00 
5.5800000e+00 6.0100000e+00 0.0000000e+00 
5.5800000e+00 6.0300000e+00 0.0000000e+00 
5.6066667e+00 5.9700000e+00 0.0000000e+00 
5.6066667e+00 5.9900000e+00 0.0000000e+00 
5.6066667e+00 6.0100000e+00 0.0000000e+00 
5.6066667e+00 6.0300000e+00 0.0000000e+00 
5.6333333e+00 5.9700000e+00 0.0000000e+00 
5.6333333e+00 5.9900000e+00 0.0000000e+00 
5.6333333e+00 6.0100000e+00 0.0000000e+00 
5.6333333e+00 6.0300000e+00 0.0000000e+00 
5.6600000e+00 5.9700000e+00 0.0000000e+00 
5.6600000e+00 5.9900000e+00 0.0000000e+00 
5.6600000e+00 6.0100000e+00 0.0000000e+00 
5.6600000e+00 6.0300000e+00 0.0000000e+00 
5.6866667e+00 5.9700000e+00 0.0000000e+00 
5.6866667e+00 5.9900000e+00 0.0000000e+00 
5.6866667e+00 6.0100000e+00 0.0000000e+00 
5.6866667e+00 6.0300000e+00 0.0000000e+00 
5.7133333e+00 5.9700000e+00 0.0000000e+00 
5.7133333e+00 5.9900000e+00 0.0000000e+00 
5.7133333e+00 6.0100000e+00 0.0000000e+00 
5.7133333e+00 6.0300000e+00 0.0000000e+00 
5.7400000e+00 5.9700000e+00 0.0000000e+00 
5.7400000e+00 5.9900000e+00 0.0000000e+00 
5.7400000e+00 6.0100000e+00 0.0000000e+00 
5.7400000e+00 6.0300000e+00 0.0000000e+00 
5.7666667e+00 5.9700000e+00 0.0000000e+00 
5.7666667e+00 5.9900000e+00 0.0000000e+00 
5.7666667e+00 6.0100000e+00 0.0000000e+00 
5.7666667e+00 6.0300000e+00 0.0000000e+00 
5.7933333e+00 5.9700000e+00 0.0000000e+00 
5.7933333e+00 5.9900000e+00 0.0000000e+00 
5.7933333e+00 6.0100000e+00 0.0000000e+00 
5.7933333e+00 6.0300000e+00 0.0000000e+00 
5.8200000e+00 5.9700000e+00 0.0000000e+00 
5.8200000e+00 5.9900000e+00 0.0000000e+00 
5.8200000e+00 6.0100000e+00 0.0000000e+00 
5.8200000e+00 6.0300000e+00 0.0000000e+00 
5.8466667e+00 5.9700000e+00 0.0000000e+00 
5.8466667e+00 5.9900000e+00 0.0000000e+00 
5.8466667e+00 6.0100000e+00 0.0000000e+00 
5.8466667e+00 6.0300000e+00 0.0000000e+00 
5.8733333e+00 5.9700000e+00 0.0000000e+00 
5.8733333e+00 5.9900000e+00 0.0000000e+00 
5.8733333e+00 6.0100000e+00 0.0000000e+00 
5.8733333e+00 6.0300000e+00 0.0000000e+00 
5.9000000e+00 5.9700000e+00 0.0000000e+00 
5.9000000e+00 5.9900000e+00 0.0000000e+00 
5.9000000e+00 6.0100000e+00 0.0000000e+00 
5.9000000e+00 6.0300000e+00 0.0000000e+00 
5.9266667e+00 5.9700000e+00 0.0000000e+00 
5.9266667e+00 5.9900000e+00 0.0000000e+00 
5.9266667e+00 6.0100000e+00 0.0000000e+00 
5.9266667e+00 6.0300000e+00 0.0000000e+00 
5.9533333e+00 5.9700000e+00 0.0000000e+00 
5.9533333e+00 5.9900000e+00 0.0000000e+00 
5.9533333e+00 6.0100000e+00 0.0000000e+00 
5.9533333e+00 6.0300000e+00 0.0000000e+00 
5.9800000e+00 5.9700000e+00 0.0000000e+00 
5.9800000e+00 5.9900000e+00 0.0000000e+00 
5.9800000e+00 6.0100000e+00 0.0000000e+00 
5.9800000e+00 6.0300000e+00 0.0000000e+00 
6.0066667e+00 5.9700000e+00 0.0000000e+00 
6.0066667e+00 5.9900000e+00 0.0000000e+00 
6.0066667e+00 6.0100000e+00 0.0000000e+00 
6.0066667e+00 6.0300000e+00 0.0000000e+00 
6.0333333e+00 5.9700000e+00 0.0000000e+00 
6.0333333e+00 5.9900000e+00 0.0000000e+00 
6.0333333e+00 6.0100000e+00 0.0000000e+00 
6.0333333e+00 6.0300000e+00 0.0000000e+00 
6.0600000e+00 5.9700000e+00 0.0000000e+00 
6.0600000e+00 5.9900000e+00 0.0000000e+00 
6.0600000e+00 6.0100000e+00 0.0000000e+00 
6.0600000e+00 6.0300000e+00 0.0000000e+00 
6.0866667e+00 5.9700000e+00 0.0000000e+00 
6.0866667e+00 5.9900000e+00 0.0000000e+00 
6.0866667e+00 6.0100000e+00 0.0000000e+00 
6.0866667e+00 6.0300000e+00 0.0000000e+00 
6.1133333e+00 5.9700000e+00 0.0000000e+00 
6.1133333e+00 5.9900000e+00 0.0000000e+00 
6.1133333e+00 6.0100000e+00 0.0000000e+00 
6.1133333e+00 6.0300000e+00 0.0000000e+00 
6.1400000e+00 5.9700000e+00 0.0000000e+00 
6.1400000e+00 5.9900000e+00 0.0000000e+00 
6.1400000e+00 6.0100000e+00 0.0000000e+00 
6.1400000e+00 6.0300000e+00 0.0000000e+00 
6.1666667e+00 5.9700000e+00 0.0000000e+00 
6.1666667e+00 5.9900000e+00 0.0000000e+00 
6.1666667e+00 6.0100000e+00 0.0000000e+00 
6.1666667e+00 6.0300000e+00 0.0000000e+00 
6.1933333e+00 5.9700000e+00 0.0000000e+00 
6.1933333e+00 5.9900000e+00 0.0000000e+00 
6.1933333e+00 6.0100000e+00 0.0000000e+00 
6.1933333e+00 6.0300000e+00 0.0000000e+00 
6.2200000e+00 5.9700000e+00 0.0000000e+00 
6.2200000e+00 5.9900000e+00 0.0000000e+00 
6.2200000e+00 6.0100000e+00 0.0000000e+00 
6.2200000e+00 6.0300000e+00 0.0000000e+00 
6.2466667e+00 5.9700000e+00 0.0000000e+00 
6.2466667e+00 5.9900000e+00 0.0000000e+00 
6.2466667e+00 6.0100000e+00 0.0000000e+00 
6.2466667e+00 6.0300000e+00 0.0000000e+00 
6.2733333e+00 5.9700000e+00 0.0000000e+00 
6.2733333e+00 5.9900000e+00 0.0000000e+00 
6.2733333e+00 6.0100000e+00 0.0000000e+00 
6.2733333e+00 6.0300000e+00 0.0000000e+00 
6.3000000e+00 5.9700000e+00 0.0000000e+00 
6.3000000e+00 5.9900000e+00 0.0000000e+00 
6.3000000e+00 6.0100000e+00 0.0000000e+00 
6.3000000e+00 6.0300000e+00 0.0000000e+00 
6.3266667e+00 5.9700000e+00 0.0000000e+00 
6.3266667e+00 5.9900000e+00 0.0000000e+00 
6.3266667e+00 6.0100000e+00 0.0000000e+00 
6.3266667e+00 6.0300000e+00 0.0000000e+00 
6.3533333e+00 5.9700000e+00 0.0000000e+00 
6.3533333e+00 5.9900000e+00 0.0000000e+00 
6.3533333e+00 6.0100000e+00 0.0000000e+00 
6.3533333e+00 6.0300000e+00 0.0000000e+00 
6.3800000e+00 5.9700000e+00 0.0000000e+00 
6.3800000e+00 5.9900000e+00 0.0000000e+00 
6.3800000e+00 6.0100000e+00 0.0000000e+00 
6.3800000e+00 6.0300000e+00 0.0000000e+00 
6.4066667e+00 5.9700000e+00 0.0000000e+00 
6.4066667e+00 5.9900000e+00 0.0000000e+00 
6.4066667e+00 6.0100000e+00 0.0000000e+00 
6.4066667e+00 6.0300000e+00 0.0000000e+00 
6.4333333e+00 5.9700000e+00 0.0000000e+00 
6.4333333e+00 5.9900000e+00 0.0000000e+00 
6.4333333e+00 6.0100000e+00 0.0000000e+00 
6.4333333e+00 6.0300000e+00 0.0000000e+00 
6.4600000e+00 5.9700000e+00 0.0000000e+00 
6.4600000e+00 5.9900000e+00 0.0000000e+00 
6.4600000e+00 6.0100000e+00 0.0000000e+00 
6.4600000e+00 6.0300000e+00 0.0000000e+00 
6.4866667e+00 5.9700000e+00 0.0000000e+00 
6.4866667e+00 5.9900000e+00 0.0000000e+00 
6.4866667e+00 6.0100000e+00 0.0000000e+00 
6.4866667e+00 6.0300000e+00 0.0000000e+00 
6.5133333e+00 5.9700000e+00 0.0000000e+00 
6.5133333e+00 5.9900000e+00 0.0000000e+00 
6.5133333e+00 6.0100000e+00 0.0000000e+00 
6.5133333e+00 6.0300000e+00 0.0000000e+00 
6.5400000e+00 5.9700000e+00 0.0000000e+00 
6.5400000e+00 5.9900000e+00 0.0000000e+00 
6.5400000e+00 6.0100000e+00 0.0000000e+00 
6.5400000e+00 6.0300000e+00 0.0000000e+00 
6.5666667e+00 5.9700000e+00 0.0000000e+00 
6.5666667e+00 5.9900000e+00 0.0000000e+00 
6.5666667e+00 6.0100000e+00 0.0000000e+00 
6.5666667e+00 6.0300000e+00 0.0000000e+00 
6.5933333e+00 5.9700000e+00 0.0000000e+00 
6.5933333e+00 5.9900000e+00 0.0000000e+00 
6.5933333e+00 6.0100000e+00 0.0000000e+00 
6.5933333e+00 6.0300000e+00 0.0000000e+00 
6.6200000e+00 5.9700000e+00 0.0000000e+00 
6.6200000e+00 5.9900000e+00 0.0000000e+00 
6.6200000e+00 6.0100000e+00 0.0000000e+00 
6.6200000e+00 6.0300000e+00 0.0000000e+00 
6.6466667e+00 5.9700000e+00 0.0000000e+00 
6.6466667e+00 5.9900000e+00 0.0000000e+00 
6.6466667e+00 6.0100000e+00 0.0000000e+00 
6.6466667e+00 6.0300000e+00 0.0000000e+00 
6.6733333e+00 5.9700000e+00 0.0000000e+00 
6.6733333e+00 5.9900000e+00 0.0000000e+00 
6.6733333e+00 6.0100000e+00 0.0000000e+00 
6.6733333e+00 6.0300000e+00 0.0000000e+00 
6.7000000e+00 5.9700000e+00 0.0000000e+00 
6.7000000e+00 5.9900000e+00 0.0000000e+00 
6.7000000e+00 6.0100000e+00 0.0000000e+00 
6.7000000e+00 6.0300000e+00 0.0000000e+00 
6.7266667e+00 5.9700000e+00 0.0000000e+00 
6.7266667e+00 5.9900000e+00 0.0000000e+00 
6.7266667e+00 6.0100000e+00 0.0000000e+00 
6.7266667e+00 6.0300000e+00 0.0000000e+00 
6.7533333e+00 5.9700000e+00 0.0000000e+00 
6.7533333e+00 5.9900000e+00 0.0000000e+00 
6.7533333e+00 6.0100000e+00 0.0000000e+00 
6.7533333e+00 6.0300000e+00 0.0000000e+00 
6.7800000e+00 5.9700000e+00 0.0000000e+00 
6.7800000e+00 5.9900000e+00 0.0000000e+00 
6.7800000e+00 6.0100000e+00 0.0000000e+00 
6.7800000e+00 6.0300000e+00 0.0000000e+00 
6.8066667e+00 5.9700000e+00 0.0000000e+00 
6.8066667e+00 5.9900000e+00 0.0000000e+00 
6.8066667e+00 6.0100000e+00 0.0000000e+00 
6.8066667e+00 6.0300000e+00 0.0000000e+00 
6.8333333e+00 5.9700000e+00 0.0000000e+00 
6.8333333e+00 5.9900000e+00 0.0000000e+00 
6.8333333e+00 6.0100000e+00 0.0000000e+00 
6.8333333e+00 6.0300000e+00 0.0000000e+00 
6.8600000e+00 5.9700000e+00 0.0000000e+00 
6.8600000e+00 5.9900000e+00 0.0000000e+00 
6.8600000e+00 6.0100000e+00 0.0000000e+00 
6.8600000e+00 6.0300000e+00 0.0000000e+00 
6.8866667e+00 5.9700000e+00 0.0000000e+00 
6.8866667e+00 5.9900000e+00 0.0000000e+00 
6.8866667e+00 6.0100000e+00 0.0000000e+00 
6.8866667e+00 6.0300000e+00 0.0000000e+00 
6.9133333e+00 5.9700000e+00 0.0000000e+00 
6.9133333e+00 5.9900000e+00 0.0000000e+00 
6.9133333e+00 6.0100000e+00 0.0000000e+00 
6.9133333e+00 6.0300000e+00 0.0000000e+00 
6.9400000e+00 5.9700000e+00 0.0000000e+00 
6.9400000e+00 5.9900000e+00 0.0000000e+00 
6.9400000e+00 6.0100000e+00 0.0000000e+00 
6.9400000e+00 6.0300000e+00 0.0000000e+00 
6.9666667e+00 5.9700000e+00 0.0000000e+00 
6.9666667e+00 5.9900000e+00 0.0000000e+00 
6.9666667e+00 6.0100000e+00 0.0000000e+00 
6.9666667e+00 6.0300000e+00 0.0000000e+00 
6.9933333e+00 5.9700000e+00 0.0000000e+00 
6.9933333e+00 5.9900000e+00 0.0000000e+00 
6.9933333e+00 6.0100000e+00 0.0000000e+00 
6.9933333e+00 6.0300000e+00 0.0000000e+00 
7.0200000e+00 5.9700000e+00 0.0000000e+00 
7.0200000e+00 5.9900000e+00 0.0000000e+00 
[...]
POINT_DATA 604
FIELD FieldData 2
DISPLACEMENT 3 604  float
0.0000000e+00 0.0000000e+00 0.0000000e+00 
0.0000000e+00 0.0000000e+00 0.0000000e+00 
-1.0319504e-04 -6.1680492e-05 0.0000000e+00 
-3.2962510e-05 -4.0176229e-05 0.0000000e+00 
0.0000000e+00 0.0000000e+00 0.0000000e+00 
3.2481657e-05 -4.0330147e-05 0.0000000e+00 
-2.0856351e-04 -1.9832489e-04 0.0000000e+00 
-7.0008135e-05 -1.8098014e-04 0.0000000e+00 
0.0000000e+00 0.0000000e+00 0.0000000e+00 
1.0261261e-04 -6.2092060e-05 0.0000000e+00 
6.8417216e-05 -1.8152069e-04 0.0000000e+00 
-3.1325105e-04 -4.2978030e-04 0.0000000e+00 
2.0672756e-04 -1.9987724e-04 0.0000000e+00 
-1.0542172e-04 -4.1288085e-04 0.0000000e+00 
1.0145617e-04 -4.1400757e-04 0.0000000e+00 
3.0890059e-04 -4.3310218e-04 0.0000000e+00 
-4.1726686e-04 -7.5179738e-04 0.0000000e+00 
-1.4153153e-04 -7.3602845e-04 0.0000000e+00 
1.3329202e-04 -7.3796957e-04 0.0000000e+00 
4.0853018e-04 -7.5757300e-04 0.0000000e+00 
-5.2099714e-04 -1.1633463e-03 0.0000000e+00 
-1.7833694e-04 -1.1488718e-03 0.0000000e+00 
1.6335387e-04 -1.1518423e-03 0.0000000e+00 
5.0540860e-04 -1.1722152e-03 0.0000000e+00 
-6.2472069e-04 -1.6630595e-03 0.0000000e+00 
-2.1615240e-04 -1.6500848e-03 0.0000000e+00 
1.9140127e-04 -1.6542875e-03 0.0000000e+00 
5.9926032e-04 -1.6756313e-03 0.0000000e+00 
-7.2871520e-04 -2.2496128e-03 0.0000000e+00 
-2.5524307e-04 -2.2383286e-03 0.0000000e+00 
2.1717091e-04 -2.2439569e-03 0.0000000e+00 
6.8983509e-04 -2.2664672e-03 0.0000000e+00 
-8.3324475e-04 -2.9216899e-03 0.0000000e+00 
-2.9586483e-04 -2.9122776e-03 0.0000000e+00 
2.4041594e-04 -2.9195154e-03 0.0000000e+00 
7.7689410e-04 -2.9433783e-03 0.0000000e+00 
-9.3856107e-04 -3.6779853e-03 0.0000000e+00 
-3.3826072e-04 -3.6706174e-03 0.0000000e+00 
2.6090172e-04 -3.6796393e-03 0.0000000e+00 
8.6021122e-04 -3.7050316e-03 0.0000000e+00 
-1.0449035e-03 -4.5172049e-03 0.0000000e+00 
-3.8266176e-04 -4.5120447e-03 0.0000000e+00 
2.7840580e-04 -4.5230163e-03 0.0000000e+00 
9.3957229e-04 -4.5501059e-03 0.0000000e+00 
-1.1525002e-03 -5.4380652e-03 0.0000000e+00 
-4.2928706e-04 -5.4352674e-03 0.0000000e+00 
2.9271746e-04 -5.4483458e-03 0.0000000e+00 
1.0147753e-03 -5.4772916e-03 0.0000000e+00 
-1.2615668e-03 -6.4392939e-03 0.0000000e+00 
-4.7834440e-04 -6.4390047e-03 0.0000000e+00 
3.0363753e-04 -6.4543384e-03 0.0000000e+00 
1.0856290e-03 -6.4852912e-03 0.0000000e+00 
-1.3723089e-03 -7.5196296e-03 0.0000000e+00 
-5.3003033e-04 -7.5219869e-03 0.0000000e+00 
3.1097792e-04 -7.5397160e-03 0.0000000e+00 
1.1519543e-03 -7.5728182e-03 0.0000000e+00 
-1.4849208e-03 -8.6778219e-03 0.0000000e+00 
-5.8453071e-04 -8.6829556e-03 0.0000000e+00 
3.1456146e-04 -8.7032125e-03 0.0000000e+00 
1.2135823e-03 -8.7385986e-03 0.0000000e+00 
-1.5995869e-03 -9.9126317e-03 0.0000000e+00 
-6.4202089e-04 -9.9206640e-03 0.0000000e+00 
3.1422142e-04 -9.9435732e-03 0.0000000e+00 
1.2703549e-03 -9.9813698e-03 0.0000000e+00 
-1.7164810e-03 -1.1222831e-02 0.0000000e+00 
-7.0266604e-04 -1.1233877e-02 0.0000000e+00 
3.0980131e-04 -1.1259555e-02 0.0000000e+00 
1.3221244e-03 -1.1299881e-02 0.0000000e+00 
-1.8357669e-03 -1.2607203e-02 0.0000000e+00 
-7.6662148e-04 -1.2621369e-02 0.0000000e+00 
3.0115454e-04 -1.2649927e-02 0.0000000e+00 
1.3687527e-03 -1.2692895e-02 0.0000000e+00 
-1.9575994e-03 -1.4064543e-02 0.0000000e+00 
-8.3403293e-04 -1.4081930e-02 0.0000000e+00 
2.8814407e-04 -1.4113469e-02 0.0000000e+00 
1.4101114e-03 -1.4159184e-02 0.0000000e+00 
-2.0821238e-03 -1.5593657e-02 0.0000000e+00 
-9.0503690e-04 -1.5614357e-02 0.0000000e+00 
2.7064222e-04 -1.5648974e-02 0.0000000e+00 
1.4460816e-03 -1.5697533e-02 0.0000000e+00 
-2.2094762e-03 -1.7193361e-02 0.0000000e+00 
-9.7976100e-04 -1.7217462e-02 0.0000000e+00 
2.4853035e-04 -1.7255245e-02 0.0000000e+00 
1.4765535e-03 -1.7306740e-02 0.0000000e+00 
-2.3397855e-03 -1.8862485e-02 0.0000000e+00 
-1.0583241e-03 -1.8890067e-02 0.0000000e+00 
2.2169853e-04 -1.8931099e-02 0.0000000e+00 
1.5014262e-03 -1.8985615e-02 0.0000000e+00 
-2.4731709e-03 -2.0599869e-02 0.0000000e+00 
-1.1408368e-03 -2.0631007e-02 0.0000000e+00 
1.9004523e-04 -2.0675365e-02 0.0000000e+00 
1.5206073e-03 -2.0732980e-02 0.0000000e+00 
-2.6097434e-03 -2.2404367e-02 0.0000000e+00 
-1.2274013e-03 -2.2439128e-02 0.0000000e+00 
1.5347708e-04 -2.2486882e-02 0.0000000e+00 
1.5340119e-03 -2.2547670e-02 0.0000000e+00 
-2.7496068e-03 -2.4274842e-02 0.0000000e+00 
-1.3181119e-03 -2.4313288e-02 0.0000000e+00 
1.1190844e-04 -2.4364503e-02 0.0000000e+00 
1.5415635e-03 -2.4428530e-02 0.0000000e+00 
-2.8928554e-03 -2.6210169e-02 0.0000000e+00 
-1.4130553e-03 -2.6252358e-02 0.0000000e+00 
6.5261447e-05 -2.6307092e-02 0.0000000e+00 
1.5431923e-03 -2.6374420e-02 0.0000000e+00 
-3.0395777e-03 -2.8209235e-02 0.0000000e+00 
-1.5123107e-03 -2.8255217e-02 0.0000000e+00 
1.3465528e-05 -2.8313525e-02 0.0000000e+00 
1.5388368e-03 -2.8384209e-02 0.0000000e+00 
-3.1898549e-03 -3.0270938e-02 0.0000000e+00 
-1.6159503e-03 -3.0320759e-02 0.0000000e+00 
-4.3542641e-05 -3.0382689e-02 0.0000000e+00 
1.5284423e-03 -3.0456780e-02 0.0000000e+00 
-3.3437612e-03 -3.2394187e-02 0.0000000e+00 
-1.7240395e-03 -3.2447888e-02 0.0000000e+00 
-1.0581956e-04 -3.2513483e-02 0.0000000e+00 
1.5119612e-03 -3.2591026e-02 0.0000000e+00 
-3.5013642e-03 -3.4577903e-02 0.0000000e+00 
-1.8366371e-03 -3.4635521e-02 0.0000000e+00 
-1.7341506e-04 -3.4704819e-02 0.0000000e+00 
1.4893525e-03 -3.4785855e-02 0.0000000e+00 
-3.6627254e-03 -3.6821019e-02 0.0000000e+00 
-1.9537952e-03 -3.6882584e-02 0.0000000e+00 
-2.4637261e-04 -3.6955619e-02 0.0000000e+00 
1.4605816e-03 -3.7040185e-02 0.0000000e+00 
-3.8278996e-03 -3.9122480e-02 0.0000000e+00 
-2.0755602e-03 -3.9188019e-02 0.0000000e+00 
-3.2472952e-04 -3.9264820e-02 0.0000000e+00 
1.4256200e-03 -3.9352946e-02 0.0000000e+00 
-3.9969359e-03 -4.1481240e-02 0.0000000e+00 
-2.2019721e-03 -4.1550775e-02 0.0000000e+00 
-4.0851715e-04 -4.1631367e-02 0.0000000e+00 
1.3844450e-03 -4.1723080e-02 0.0000000e+00 
-4.1698778e-03 -4.3896267e-02 0.0000000e+00 
-2.3330655e-03 -4.3969817e-02 0.0000000e+00 
-4.9776118e-04 -4.4054221e-02 0.0000000e+00 
1.3370398e-03 -4.4149544e-02 0.0000000e+00 
-4.3467630e-03 -4.6366540e-02 0.0000000e+00 
-2.4688695e-03 -4.6444119e-02 0.0000000e+00 
-5.9248177e-04 -4.6532351e-02 0.0000000e+00 
1.2833931e-03 -4.6631303e-02 0.0000000e+00 
-4.5276243e-03 -4.8891050e-02 0.0000000e+00 
-2.6094079e-03 -4.8972668e-02 0.0000000e+00 
-6.9269369e-04 -4.9064740e-02 0.0000000e+00 
1.2234987e-03 -4.9167336e-02 0.0000000e+00 
-4.7124906e-03 -5.1468798e-02 0.0000000e+00 
-2.7546996e-03 -5.1554461e-02 0.0000000e+00 
-7.9840676e-04 -5.1650383e-02 0.0000000e+00 
1.1573567e-03 -5.1756634e-02 0.0000000e+00 
-4.9013846e-03 -5.4098799e-02 0.0000000e+00 
-2.9047586e-03 -5.4188511e-02 0.0000000e+00 
-9.0962595e-04 -5.4288287e-02 0.0000000e+00 
1.0849707e-03 -5.4398202e-02 0.0000000e+00 
-5.0943244e-03 -5.6780079e-02 0.0000000e+00 
-3.0595943e-03 -5.6873839e-02 0.0000000e+00 
-1.0263517e-03 -5.6977473e-02 0.0000000e+00 
1.0063491e-03 -5.7091054e-02 0.0000000e+00 
-5.2913238e-03 -5.9511676e-02 0.0000000e+00 
-3.2192110e-03 -5.9609481e-02 0.0000000e+00 
-1.1485800e-03 -5.9716970e-02 0.0000000e+00 
9.2150474e-04 -5.9834219e-02 0.0000000e+00 
-5.4923903e-03 -6.2292639e-02 0.0000000e+00 
-3.3836093e-03 -6.2394481e-02 0.0000000e+00 
-1.2763026e-03 -6.2505821e-02 0.0000000e+00 
8.3045366e-04 -6.2626736e-02 0.0000000e+00 
-5.6975293e-03 -6.5122026e-02 0.0000000e+00 
-3.5527852e-03 -6.5227896e-02 0.0000000e+00 
-1.4095072e-03 -6.5343080e-02 0.0000000e+00 
7.3321716e-04 -6.5467656e-02 0.0000000e+00 
-5.9067418e-03 -6.7998909e-02 0.0000000e+00 
-3.7267308e-03 -6.8108795e-02 0.0000000e+00 
-1.5481772e-03 -6.8227812e-02 0.0000000e+00 
6.2982022e-04 -6.8356040e-02 0.0000000e+00 
-6.1200252e-03 -7.0922371e-02 0.0000000e+00 
-3.9054350e-03 -7.1036257e-02 0.0000000e+00 
-1.6922926e-03 -7.1159093e-02 0.0000000e+00 
5.2029173e-04 -7.1290963e-02 0.0000000e+00 
-6.3373730e-03 -7.3891506e-02 0.0000000e+00 
-4.0888825e-03 -7.4009373e-02 0.0000000e+00 
-1.8418297e-03 -7.4136014e-02 0.0000000e+00 
4.0466392e-04 -7.4271511e-02 0.0000000e+00 
-6.5587756e-03 -7.6905417e-02 0.0000000e+00 
-4.2770551e-03 -7.7027246e-02 0.0000000e+00 
-1.9967615e-03 -7.7157673e-02 0.0000000e+00 
2.8297257e-04 -7.7296782e-02 0.0000000e+00 
-6.7842200e-03 -7.9963223e-02 0.0000000e+00 
-4.4699310e-03 -8.0088990e-02 0.0000000e+00 
-2.1570576e-03 -8.0223182e-02 0.0000000e+00 
1.5525647e-04 -8.0365885e-02 0.0000000e+00 
-7.0136898e-03 -8.3064051e-02 0.0000000e+00 
-4.6674854e-03 -8.3193731e-02 0.0000000e+00 
-2.3226847e-03 -8.3331666e-02 0.0000000e+00 
2.1557396e-05 -8.3477941e-02 0.0000000e+00 
-7.2471659e-03 -8.6207039e-02 0.0000000e+00 
-4.8696906e-03 -8.6340605e-02 0.0000000e+00 
-2.4936066e-03 -8.6482258e-02 0.0000000e+00 
-1.1807981e-04 -8.6632083e-02 0.0000000e+00 
-7.4846262e-03 -8.9391339e-02 0.0000000e+00 
-5.0765161e-03 -8.9528761e-02 0.0000000e+00 
-2.6697843e-03 -8.9674104e-02 0.0000000e+00 
-2.6360779e-04 -8.9827455e-02 0.0000000e+00 
-7.7260462e-03 -9.2616111e-02 0.0000000e+00 
-5.2879286e-03 -9.2757358e-02 0.0000000e+00 
-2.8511761e-03 -9.2906363e-02 0.0000000e+00 
-4.1497640e-04 -9.3063212e-02 0.0000000e+00 
-7.9713983e-03 -9.5880527e-02 0.0000000e+00 
-5.5038925e-03 -9.6025567e-02 0.0000000e+00 
-3.0377379e-03 -9.6178203e-02 0.0000000e+00 
-5.7213325e-04 -9.6338521e-02 0.0000000e+00 
-8.2206529e-03 -9.9183772e-02 0.0000000e+00 
-5.7243700e-03 -9.9332569e-02 0.0000000e+00 
-3.2294232e-03 -9.9488803e-02 0.0000000e+00 
-7.3502354e-04 -9.9652561e-02 0.0000000e+00 
-8.4737799e-03 -1.0252504e-01 0.0000000e+00 
-5.9493208e-03 -1.0267756e-01 0.0000000e+00 
-3.4261834e-03 -1.0283736e-01 0.0000000e+00 
-9.0358920e-04 -1.0300452e-01 0.0000000e+00 
-8.7307452e-03 -1.0590354e-01 0.0000000e+00 
-6.1787031e-03 -1.0605974e-01 0.0000000e+00 
-3.6279678e-03 -1.0622306e-01 0.0000000e+00 
-1.0777714e-03 -1.0639360e-01 0.0000000e+00 
-8.9915127e-03 -1.0931848e-01 0.0000000e+00 
-6.4124725e-03 -1.0947832e-01 0.0000000e+00 
-3.8347238e-03 -1.0964514e-01 0.0000000e+00 
-1.2575096e-03 -1.0981902e-01 0.0000000e+00 
-9.2560448e-03 -1.1276910e-01 0.0000000e+00 
-6.6505827e-03 -1.1293255e-01 0.0000000e+00 
-4.0463975e-03 -1.1310282e-01 0.0000000e+00 
-1.4427413e-03 -1.1328000e-01 0.0000000e+00 
-9.5242995e-03 -1.1625463e-01 0.0000000e+00 
-6.8929857e-03 -1.1642164e-01 0.0000000e+00 
-4.2629329e-03 -1.1659532e-01 0.0000000e+00 
-1.6334037e-03 -1.1677577e-01 0.0000000e+00 
-9.7962354e-03 -1.1977432e-01 0.0000000e+00 
-7.1396314e-03 -1.1994485e-01 0.0000000e+00 
-4.4842722e-03 -1.2012191e-01 0.0000000e+00 
-1.8294310e-03 -1.2030558e-01 0.0000000e+00 
-1.0071809e-02 -1.2332743e-01 0.0000000e+00 
-7.3904685e-03 -1.2350144e-01 0.0000000e+00 
-4.7103564e-03 -1.2368183e-01 0.0000000e+00 
-2.0307561e-03 -1.2386869e-01 0.0000000e+00 
-1.0350976e-02 -1.2691323e-01 0.0000000e+00 
-7.6454446e-03 -1.2709067e-01 0.0000000e+00 
-4.9411247e-03 -1.2727434e-01 0.0000000e+00 
-2.2373104e-03 -1.2746435e-01 0.0000000e+00 
-1.0633691e-02 -1.3053100e-01 0.0000000e+00 
-7.9045054e-03 -1.3071182e-01 0.0000000e+00 
-5.1765154e-03 -1.3089874e-01 0.0000000e+00 
-2.4490244e-03 -1.3109185e-01 0.0000000e+00 
-1.0919905e-02 -1.3418002e-01 0.0000000e+00 
-8.1675958e-03 -1.3436418e-01 0.0000000e+00 
-5.4164655e-03 -1.3455431e-01 0.0000000e+00 
-2.6658272e-03 -1.3475048e-01 0.0000000e+00 
-1.1209569e-02 -1.3785961e-01 0.0000000e+00 
-8.4346595e-03 -1.3804706e-01 0.0000000e+00 
-5.6609109e-03 -1.3824034e-01 0.0000000e+00 
-2.8876472e-03 -1.3843953e-01 0.0000000e+00 
-1.1502635e-02 -1.4156907e-01 0.0000000e+00 
-8.7056388e-03 -1.4175976e-01 0.0000000e+00 
-5.9097864e-03 -1.4195614e-01 0.0000000e+00 
-3.1144115e-03 -1.4215831e-01 0.0000000e+00 
-1.1799051e-02 -1.4530771e-01 0.0000000e+00 
-8.9804758e-03 -1.4550159e-01 0.0000000e+00 
-6.1630260e-03 -1.4570104e-01 0.0000000e+00 
-3.3460468e-03 -1.4590613e-01 0.0000000e+00 
-1.2098768e-02 -1.4907487e-01 0.0000000e+00 
-9.2591112e-03 -1.4927190e-01 0.0000000e+00 
-6.4205629e-03 -1.4947436e-01 0.0000000e+00 
-3.5824774e-03 -1.4968234e-01 0.0000000e+00 
-1.2401732e-02 -1.5286990e-01 0.0000000e+00 
-9.5414855e-03 -1.5307002e-01 0.0000000e+00 
-6.6823295e-03 -1.5327544e-01 0.0000000e+00 
-3.8236285e-03 -1.5348626e-01 0.0000000e+00 
-1.2707892e-02 -1.5669214e-01 0.0000000e+00 
-9.8275381e-03 -1.5689530e-01 0.0000000e+00 
-6.9482580e-03 -1.5710364e-01 0.0000000e+00 
-4.0694248e-03 -1.5731724e-01 0.0000000e+00 
-1.3017192e-02 -1.6054095e-01 0.0000000e+00 
-1.0117208e-02 -1.6074710e-01 0.0000000e+00 
-7.2182800e-03 -1.6095831e-01 0.0000000e+00 
-4.3197906e-03 -1.6117466e-01 0.0000000e+00 
-1.3329576e-02 -1.6441570e-01 0.0000000e+00 
-1.0410432e-02 -1.6462480e-01 0.0000000e+00 
-7.4923264e-03 -1.6483883e-01 0.0000000e+00 
-4.5746510e-03 -1.6505787e-01 0.0000000e+00 
-1.3644989e-02 -1.6831578e-01 0.0000000e+00 
-1.0707148e-02 -1.6852776e-01 0.0000000e+00 
-7.7703278e-03 -1.6874456e-01 0.0000000e+00 
-4.8339291e-03 -1.6896625e-01 0.0000000e+00 
-1.3963375e-02 -1.7224057e-01 0.0000000e+00 
-1.1007293e-02 -1.7245539e-01 0.0000000e+00 
-8.0522139e-03 -1.7267490e-01 0.0000000e+00 
-5.0975479e-03 -1.7289919e-01 0.0000000e+00 
-1.4284677e-02 -1.7618946e-01 0.0000000e+00 
-1.1310803e-02 -1.7640707e-01 0.0000000e+00 
-8.3379145e-03 -1.7662925e-01 0.0000000e+00 
-5.3654300e-03 -1.7685609e-01 0.0000000e+00 
-1.4608839e-02 -1.8016186e-01 0.0000000e+00 
-1.1617615e-02 -1.8038220e-01 0.0000000e+00 
-8.6273590e-03 -1.8060701e-01 0.0000000e+00 
-5.6374980e-03 -1.8083635e-01 0.0000000e+00 
-1.4935804e-02 -1.8415720e-01 0.0000000e+00 
-1.1927665e-02 -1.8438022e-01 0.0000000e+00 
-8.9204766e-03 -1.8460759e-01 0.0000000e+00 
-5.9136743e-03 -1.8483939e-01 0.0000000e+00 
-1.5265514e-02 -1.8817489e-01 0.0000000e+00 
-1.2240889e-02 -1.8840054e-01 0.0000000e+00 
-9.2171965e-03 -1.8863042e-01 0.0000000e+00 
-6.1938811e-03 -1.8886463e-01 0.0000000e+00 
-1.5597911e-02 -1.9221436e-01 0.0000000e+00 
-1.2557222e-02 -1.9244259e-01 0.0000000e+00 
-9.5174476e-03 -1.9267494e-01 0.0000000e+00 
-6.4780412e-03 -1.9291150e-01 0.0000000e+00 
-1.5932938e-02 -1.9627507e-01 0.0000000e+00 
-1.2876600e-02 -1.9650582e-01 0.0000000e+00 
-9.8211591e-03 -1.9674058e-01 0.0000000e+00 
-6.7660769e-03 -1.9697945e-01 0.0000000e+00 
-1.6270537e-02 -2.0035645e-01 0.0000000e+00 
-1.3198958e-02 -2.0058967e-01 0.0000000e+00 
-1.0128260e-02 -2.0082680e-01 0.0000000e+00 
-7.0579110e-03 -2.0106793e-01 0.0000000e+00 
-1.6610648e-02 -2.0445797e-01 0.0000000e+00 
-1.3524232e-02 -2.0469361e-01 0.0000000e+00 
-1.0438679e-02 -2.0493306e-01 0.0000000e+00 
-7.3534660e-03 -2.0517639e-01 0.0000000e+00 
-1.6953214e-02 -2.0857910e-01 0.0000000e+00 
-1.3852358e-02 -2.0881710e-01 0.0000000e+00 
-1.0752346e-02 -2.0905881e-01 0.0000000e+00 
-7.6526651e-03 -2.0930431e-01 0.0000000e+00 
-1.7298177e-02 -2.1271931e-01 0.0000000e+00 
-1.4183270e-02 -2.1295963e-01 0.0000000e+00 
-1.1069189e-02 -2.1320355e-01 0.0000000e+00 
-7.9554314e-03 -2.1345115e-01 0.0000000e+00 
-1.7645479e-02 -2.1687809e-01 0.0000000e+00 
-1.4516904e-02 -2.1712066e-01 0.0000000e+00 
-1.1389139e-02 -2.1736675e-01 0.0000000e+00 
-8.2616868e-03 -2.1761641e-01 0.0000000e+00 
-1.7995064e-02 -2.2105492e-01 0.0000000e+00 
-1.4853198e-02 -2.2129971e-01 0.0000000e+00 
-1.1712125e-02 -2.2154790e-01 0.0000000e+00 
-8.5713551e-03 -2.2179958e-01 0.0000000e+00 
-1.8346872e-02 -2.2524931e-01 0.0000000e+00 
-1.5192087e-02 -2.2549626e-01 0.0000000e+00 
-1.2038077e-02 -2.2574651e-01 0.0000000e+00 
-8.8843610e-03 -2.2600016e-01 0.0000000e+00 
-1.8700847e-02 -2.2946078e-01 0.0000000e+00 
-1.5533506e-02 -2.2970983e-01 0.0000000e+00 
-1.2366926e-02 -2.2996209e-01 0.0000000e+00 
-9.2006288e-03 -2.3021765e-01 0.0000000e+00 
-1.9056927e-02 -2.3368882e-01 0.0000000e+00 
-1.5877393e-02 -2.3393993e-01 0.0000000e+00 
-1.2698602e-02 -2.3419416e-01 0.0000000e+00 
-9.5200856e-03 -2.3445158e-01 0.0000000e+00 
-1.9415055e-02 -2.3793297e-01 0.0000000e+00 
-1.6223683e-02 -2.3818608e-01 0.0000000e+00 
-1.3033037e-02 -2.3844222e-01 0.0000000e+00 
-9.8426564e-03 -2.3870147e-01 0.0000000e+00 
-1.9775174e-02 -2.4219276e-01 0.0000000e+00 
-1.6572313e-02 -2.4244783e-01 0.0000000e+00 
-1.3370162e-02 -2.4270583e-01 0.0000000e+00 
-1.0168267e-02 -2.4296684e-01 0.0000000e+00 
-2.0137224e-02 -2.4646773e-01 0.0000000e+00 
-1.6923220e-02 -2.4672469e-01 0.0000000e+00 
-1.3709909e-02 -2.4698451e-01 0.0000000e+00 
-1.0496844e-02 -2.4724724e-01 0.0000000e+00 
-2.0501149e-02 -2.5075740e-01 0.0000000e+00 
-1.7276340e-02 -2.5101622e-01 0.0000000e+00 
-1.4052209e-02 -2.5127780e-01 0.0000000e+00 
-1.0828313e-02 -2.5154222e-01 0.0000000e+00 
-2.0866892e-02 -2.5506135e-01 0.0000000e+00 
-1.7631612e-02 -2.5532197e-01 0.0000000e+00 
-1.4396994e-02 -2.5558527e-01 0.0000000e+00 
-1.1162603e-02 -2.5585131e-01 0.0000000e+00 
-2.1234394e-02 -2.5937912e-01 0.0000000e+00 
-1.7988974e-02 -2.5964149e-01 0.0000000e+00 
-1.4744198e-02 -2.5990646e-01 0.0000000e+00 
-1.1499641e-02 -2.6017408e-01 0.0000000e+00 
-2.1603600e-02 -2.6371028e-01 0.0000000e+00 
-1.8348362e-02 -2.6397436e-01 0.0000000e+00 
-1.5093754e-02 -2.6424094e-01 0.0000000e+00 
-1.1839355e-02 -2.6451010e-01 0.0000000e+00 
-2.1974451e-02 -2.6805440e-01 0.0000000e+00 
-1.8709717e-02 -2.6832013e-01 0.0000000e+00 
-1.5445596e-02 -2.6858828e-01 0.0000000e+00 
-1.2181674e-02 -2.6885893e-01 0.0000000e+00 
-2.2346895e-02 -2.7241106e-01 0.0000000e+00 
-1.9072977e-02 -2.7267839e-01 0.0000000e+00 
-1.5799656e-02 -2.7294807e-01 0.0000000e+00 
-1.2526525e-02 -2.7322015e-01 0.0000000e+00 
-2.2720875e-02 -2.7677983e-01 0.0000000e+00 
-1.9438082e-02 -2.7704873e-01 0.0000000e+00 
-1.6155870e-02 -2.7731988e-01 0.0000000e+00 
-1.2873840e-02 -2.7759336e-01 0.0000000e+00 
-2.3096336e-02 -2.8116032e-01 0.0000000e+00 
-1.9804971e-02 -2.8143072e-01 0.0000000e+00 
-1.6514174e-02 -2.8170331e-01 0.0000000e+00 
-1.3223548e-02 -2.8197814e-01 0.0000000e+00 
-2.3473222e-02 -2.8555212e-01 0.0000000e+00 
-2.0173586e-02 -2.8582398e-01 0.0000000e+00 
-1.6874502e-02 -2.8609795e-01 0.0000000e+00 
-1.3575580e-02 -2.8637409e-01 0.0000000e+00 
-2.3851477e-02 -2.8995483e-01 0.0000000e+00 
-2.0543866e-02 -2.9022810e-01 0.0000000e+00 
-1.7236792e-02 -2.9050341e-01 0.0000000e+00 
-1.3929871e-02 -2.9078081e-01 0.0000000e+00 
-2.4231046e-02 -2.9436805e-01 0.0000000e+00 
-2.0915752e-02 -2.9464270e-01 0.0000000e+00 
-1.7600980e-02 -2.9491930e-01 0.0000000e+00 
-1.4286352e-02 -2.9519791e-01 0.0000000e+00 
-2.4611875e-02 -2.9879141e-01 0.0000000e+00 
-2.1289185e-02 -2.9906738e-01 0.0000000e+00 
-1.7967003e-02 -2.9934522e-01 0.0000000e+00 
-1.4644956e-02 -2.9962500e-01 0.0000000e+00 
-2.4993910e-02 -3.0322452e-01 0.0000000e+00 
-2.1664108e-02 -3.0350176e-01 0.0000000e+00 
-1.8334799e-02 -3.0378080e-01 0.0000000e+00 
-1.5005616e-02 -3.0406171e-01 0.0000000e+00 
-2.5377099e-02 -3.0766700e-01 0.0000000e+00 
-2.2040463e-02 -3.0794547e-01 0.0000000e+00 
-1.8704306e-02 -3.0822567e-01 0.0000000e+00 
-1.5368266e-02 -3.0850767e-01 0.0000000e+00 
-2.5761388e-02 -3.1211848e-01 0.0000000e+00 
-2.2418193e-02 -3.1239814e-01 0.0000000e+00 
-1.9075462e-02 -3.1267945e-01 0.0000000e+00 
-1.5732840e-02 -3.1296249e-01 0.0000000e+00 
-2.6146727e-02 -3.1657861e-01 0.0000000e+00 
-2.2797242e-02 -3.1685941e-01 0.0000000e+00 
-1.9448207e-02 -3.1714179e-01 0.0000000e+00 
-1.6099272e-02 -3.1742583e-01 0.0000000e+00 
-2.6533064e-02 -3.2104702e-01 0.0000000e+00 
-2.3177554e-02 -3.2132891e-01 0.0000000e+00 
-1.9822480e-02 -3.2161232e-01 0.0000000e+00 
-1.6467498e-02 -3.2189732e-01 0.0000000e+00 
-2.6920350e-02 -3.2552337e-01 0.0000000e+00 
-2.3559075e-02 -3.2580631e-01 0.0000000e+00 
-2.0198223e-02 -3.2609070e-01 0.0000000e+00 
-1.6837455e-02 -3.2637661e-01 0.0000000e+00 
-2.7308534e-02 -3.3000730e-01 0.0000000e+00 
-2.3941751e-02 -3.3029125e-01 0.0000000e+00 
-2.0575376e-02 -3.3057659e-01 0.0000000e+00 
-1.7209078e-02 -3.3086337e-01 0.0000000e+00 
-2.7697568e-02 -3.3449848e-01 0.0000000e+00 
-2.4325529e-02 -3.3478339e-01 0.0000000e+00 
-2.0953882e-02 -3.3506963e-01 0.0000000e+00 
-1.7582305e-02 -3.3535725e-01 0.0000000e+00 