# vtk DataFile Version 4.0
vtk output
ASCII
DATASET UNSTRUCTURED_GRID
POINTS 604 float
5.5000000e+00 5.9700000e+00 0.0000000e+00 
5.5000000e+00 5.9900000e+00 0.0000000e+00 
5.5266667e+00 5.9700000e+00 0.0000000e+00 
5.5266667e+00 5.9900000e+00 0.0000000e+00 
5.5000000e+00 6.0100000e+00 0.0000000e+00 
5.5266667e+00 6.0100000e+00 0.0000000e+00 
5.5533333e+00 5.9700000e+00 0.0000000e+00 
5.5533333e+00 5.9900000e+00 0.0000000e+00 
5.5000000e+00 6.0300000e+00 0.0000000e+00 
5.5266667e+00 6.0300000e+00 0.0000000e+00 
5.5533333e+00 6.0100000e+00 0.0000000e+00 
5.5800000e+00 5.9700000e+00 0.0000000e+00 
5.5533333e+00 6.0300000e+00 0.0000000e+00 
5.5800000e+00 5.9900000e+00 0.0000000e+00 
5.5800000e+00 6.0100000e+00 0.0000000e+00 
5.5800000e+00 6.0300000e+00 0.0000000e+00 
5.6066667e+00 5.9700000e+00 0.0000000e+00 
5.6066667e+00 5.9900000e+00 0.0000000e+00 
5.6066667e+00 6.0100000e+00 0.0000000e+00 
5.6066667e+00 6.0300000e+00 0.0000000e+00 
5.6333333e+00 5.9700000e+00 0.0000000e+00 
5.6333333e+00 5.9900000e+00 0.0000000e+00 
5.6333333e+00 6.0100000e+00 0.0000000e+00 
5.6333333e+00 6.0300000e+00 0.0000000e+00 
5.6600000e+00 5.9700000e+00 0.0000000e+00 
5.6600000e+00 5.9900000e+00 0.0000000e+00 
5.6600000e+00 6.0100000e+00 0.0000000e+00 
5.6600000e+00 6.0300000e+00 0.0000000e+00 
5.6866667e+00 5.9700000e+00 0.0000000e+00 
5.6866667e+00 5.9900000e+00 0.0000000e+00 
5.6866667e+00 6.0100000e+00 0.0000000e+00 
5.6866667e+00 6.0300000e+00 0.0000000e+00 
5.7133333e+00 5.9700000e+00 0.0000000e+00 
5.7133333e+00 5.9900000e+00 0.0000000e+00 
5.7133333e+00 6.0100000e+00 0.0000000e+00 
5.7133333e+00 6.0300000e+00 0.0000000e+00 
5.7400000e+00 5.9700000e+00 0.0000000e+00 
5.7400000e+00 5.9900000e+00 0.0000000e+00 
5.7400000e+00 6.0100000e+00 0.0000000e+00 
5.7400000e+00 6.0300000e+00 0.0000000e+00 
5.7666667e+00 5.9700000e+00 0.0000000e+00 
5.7666667e+00 5.9900000e+00 0.0000000e+00 
5.7666667e+00 6.0100000e+00 0.0000000e+00 
5.7666667e+00 6.0300000e+00 0.0000000e+00 
5.7933333e+00 5.9700000e+00 0.0000000e+00 
5.7933333e+00 5.9900000e+00 0.0000000e+00 
5.7933333e+00 6.0100000e+00 0.0000000e+00 
5.7933333e+00 6.0300000e+00 0.0000000e+00 
5.8200000e+00 5.9700000e+00 0.0000000e+00 
5.8200000e+00 5.9900000e+00 0.0000000e+00 
5.8200000e+00 6.0100000e+00 0.0000000e+00 
5.8200000e+00 6.0300000e+00 0.0000000e+00 
5.8466667e+00 5.9700000e+00 0.0000000e+00 
5.8466667e+00 5.9900000e+00 0.0000000e+00 
5.8466667e+00 6.0100000e+00 0.0000000e+00 
5.8466667e+00 6.0300000e+00 0.0000000e+00 
5.8733333e+00 5.9700000e+00 0.0000000e+00 
5.8733333e+00 5.9900000e+00 0.0000000e+00 
5.8733333e+00 6.0100000e+00 0.0000000e+00 
5.8733333e+00 6.0300000e+00 0.0000000e+00 
5.9000000e+00 5.9700000e+00 0.0000000e+00 
5.9000000e+00 5.9900000e+00 0.0000000e+00 
5.9000000e+00 6.0100000e+00 0.0000000e+00 
5.9000000e+00 6.0300000e+00 0.0000000e+00 
5.9266667e+00 5.9700000e+00 0.0000000e+00 
5.9266667e+00 5.9900000e+00 0.0000000e+00 
5.9266667e+00 6.0100000e+00 0.0000000e+00 
5.9266667e+00 6.0300000e+00 0.0000000e+00 
5.9533333e+00 5.9700000e+00 0.0000000e+00 
5.9533333e+00 5.9900000e+00 0.0000000e+00 
5.9533333e+00 6.0100000e+00 0.0000000e+00 
5.9533333e+00 6.0300000e+00 0.0000000e+00 
5.9800000e+00 5.9700000e+00 0.0000000e+00 
5.9800000e+00 5.9900000e+00 0.0000000e+00 
5.9800000e+00 6.0100000e+00 0.0000000e+00 
5.9800000e+00 6.0300000e+00 0.0000000e+00 
6.0066667e+00 5.9700000e+00 0.0000000e+00 
6.0066667e+00 5.9900000e+00 0.0000000e+00 
6.0066667e+00 6.0100000e+00 0.0000000e+00 
6.0066667e+00 6.0300000e+00 0.0000000e+00 
6.0333333e+00 5.9700000e+00 0.0000000e+00 
6.0333333e+00 5.9900000e+00 0.0000000e+00 
6.0333333e+00 6.0100000e+00 0.0000000e+00 
6.0333333e+00 6.0300000e+00 0.0000000e+00 
6.0600000e+00 5.9700000e+00 0.0000000e+00 
6.0600000e+00 5.9900000e+00 0.0000000e+00 
6.0600000e+00 6.0100000e+00 0.0000000e+00 
6.0600000e+00 6.0300000e+00 0.0000000e+00 
6.0866667e+00 5.9700000e+00 0.0000000e+00 
6.0866667e+00 5.9900000e+00 0.0000000e+00 
6.0866667e+00 6.0100000e+00 0.0000000e+00 
6.0866667e+00 6.0300000e+00 0.0000000e+00 
6.1133333e+00 5.9700000e+00 0.0000000e+00 
6.1133333e+00 5.9900000e+00 0.0000000e+00 
6.1133333e+00 6.0100000e+00 0.0000000e+00 
6.1133333e+00 6.0300000e+00 0.0000000e+00 
6.1400000e+00 5.9700000e+00 0.0000000e+00 
6.1400000e+00 5.9900000e+00 0.0000000e+00 
6.1400000e+00 6.0100000e+00 0.0000000e+00 
6.1400000e+00 6.0300000e+00 0.0000000e+00 
6.1666667e+00 5.9700000e+00 0.0000000e+00 
6.1666667e+00 5.9900000e+00 0.0000000e+00 
6.1666667e+00 6.0100000e+00 0.0000000e+00 
6.1666667e+00 6.0300000e+00 0.0000000e+00 
6.1933333e+00 5.9700000e+00 0.0000000e+00 
6.1933333e+00 5.9900000e+00 0.0000000e+00 
6.1933333e+00 6.0100000e+00 0.0000000e+00 
6.1933333e+00 6.0300000e+00 0.0000000e+00 
6.2200000e+00 5.9700000e+00 0.0000000e+00 
6.2200000e+00 5.9900000e+00 0.0000000e+00 
6.2200000e+00 6.0100000e+00 0.0000000e+00 
6.2200000e+00 6.0300000e+00 0.0000000e+00 
6.2466667e+00 5.9700000e+00 0.0000000e+00 
6.2466667e+00 5.9900000e+00 0.0000000e+00 
6.2466667e+00 6.0100000e+00 0.0000000e+00 
6.2466667e+00 6.0300000e+00 0.0000000e+00 
6.2733333e+00 5.9700000e+00 0.0000000e+00 
6.2733333e+00 5.9900000e+00 0.0000000e+00 
6.2733333e+00 6.0100000e+00 0.0000000e+00 
6.2733333e+00 6.0300000e+00 0.0000000e+00 
6.3000000e+00 5.9700000e+00 0.0000000e+00 
6.3000000e+00 5.9900000e+00 0.0000000e+00 
6.3000000e+00 6.0100000e+00 0.0000000e+00 
6.3000000e+00 6.0300000e+00 0.0000000e+00 
6.3266667e+00 5.9700000e+00 0.0000000e+00 
6.3266667e+00 5.9900000e+00 0.0000000e+00 
6.3266667e+00 6.0100000e+00 0.0000000e+00 
6.3266667e+00 6.0300000e+00 0.0000000e+00 
6.3533333e+00 5.9700000e+00 0.0000000e+00 
6.3533333e+00 5.9900000e+00 0.0000000e+00 
6.3533333e+00 6.0100000e+00 0.0000000e+00 
6.3533333e+00 6.0300000e+00 0.0000000e+00 
6.3800000e+00 5.9700000e+00 0.0000000e+00 
6.3800000e+00 5.9900000e+00 0.0000000e+00 
6.3800000e+00 6.0100000e+00 0.0000000e+00 
6.3800000e+00 6.0300000e+00 0.0000000e+00 
6.4066667e+00 5.9700000e+00 0.0000000e+00 
6.4066667e+00 5.9900000e+00 0.0000000e+00 
6.4066667e+00 6.0100000e+00 0.0000000e+00 
6.4066667e+00 6.0300000e+00 0.0000000e+00 
6.4333333e+00 5.9700000e+00 0.0000000e+00 
6.4333333e+00 5.9900000e+00 0.0000000e+00 
6.4333333e+00 6.0100000e+00 0.0000000e+00 
6.4333333e+00 6.0300000e+00 0.0000000e+00 
6.4600000e+00 5.9700000e+00 0.0000000e+00 
6.4600000e+00 5.9900000e+00 0.0000000e+00 
6.4600000e+00 6.0100000e+00 0.0000000e+00 
6.4600000e+00 6.0300000e+00 0.0000000e+00 
6.4866667e+00 5.9700000e+00 0.0000000e+00 
6.4866667e+00 5.9900000e+00 0.0000000e+00 
6.4866667e+00 6.0100000e+00 0.0000000e+00 
6.4866667e+00 6.0300000e+00 0.0000000e+00 
6.5133333e+00 5.9700000e+00 0.0000000e+00 
6.5133333e+00 5.9900000e+00 0.0000000e+00 
6.5133333e+00 6.0100000e+00 0.0000000e+00 
6.5133333e+00 6.0300000e+00 0.0000000e+00 
6.5400000e+00 5.9700000e+00 0.0000000e+00 
6.5400000e+00 5.9900000e+00 0.0000000e+00 
6.5400000e+00 6.0100000e+00 0.0000000e+00 
6.5400000e+00 6.0300000e+00 0.0000000e+00 
6.5666667e+00 5.9700000e+00 0.0000000e+00 
6.5666667e+00 5.9900000e+00 0.0000000e+00 
6.5666667e+00 6.0100000e+00 0.0000000e+00 
6.5666667e+00 6.0300000e+00 0.0000000e+00 
6.5933333e+00 5.9700000e+00 0.0000000e+00 
6.5933333e+00 5.9900000e+00 0.0000000e+00 
6.5933333e+00 6.0100000e+00 0.0000000e+00 
6.5933333e+00 6.0300000e+00 0.0000000e+00 
6.6200000e+00 5.9700000e+00 0.0000000e+00 
6.6200000e+00 5.9900000e+00 0.0000000e+00 
6.6200000e+00 6.0100000e+00 0.0000000e+00 
6.6200000e+00 6.0300000e+00 0.0000000e+00 
6.6466667e+00 5.9700000e+00 0.0000000e+00 
6.6466667e+00 5.9900000e+00 0.0000000e+00 
6.6466667e+00 6.0100000e+00 0.0000000e+00 
6.6466667e+00 6.0300000e+00 0.0000000e+00 
6.6733333e+00 5.9700000e+00 0.0000000e+00 
6.6733333e+00 5.9900000e+00 0.0000000e+00 
6.6733333e+00 6.0100000e+00 0.0000000e+00 
6.6733333e+00 6.0300000e+00 0.0000000e+00 
6.7000000e+00 5.9700000e+00 0.0000000e+00 
6.7000000e+00 5.9900000e+00 0.0000000e+00 
6.7000000e+00 6.0100000e+00 0.0000000e+00 
6.7000000e+00 6.0300000e+00 0.0000000e+00 
6.7266667e+00 5.9700000e+00 0.0000000e+00 
6.7266667e+00 5.9900000e+00 0.0000000e+00 
6.7266667e+00 6.0100000e+00 0.0000000e+00 
6.7266667e+00 6.0300000e+00 0.0000000e+00 
6.7533333e+00 5.9700000e+00 0.0000000e+00 
6.7533333e+00 5.9900000e+00 0.0000000e+00 
6.7533333e+00 6.0100000e+00 0.0000000e+00 
6.7533333e+00 6.0300000e+00 0.0000000e+00 
6.7800000e+00 5.9700000e+00 0.0000000e+00 
6.7800000e+00 5.9900000e+00 0.0000000e+00 
6.7800000e+00 6.0100000e+00 0.0000000e+00 
6.7800000e+00 6.0300000e+00 0.0000000e+00 
6.8066667e+00 5.9700000e+00 0.0000000e+00 
6.8066667e+00 5.9900000e+00 0.0000000e+00 
6.8066667e+00 6.0100000e+00 0.0000000e+00 
6.8066667e+00 6.0300000e+00 0.0000000e+00 
6.8333333e+00 5.9700000e+00 0.0000000e+00 
6.8333333e+00 5.9900000e+00 0.0000000e+00 
6.8333333e+00 6.0100000e+00 0.0000000e+00 
6.8333333e+00 6.0300000e+00 0.0000000e+00 
6.8600000e+00 5.9700000e+00 0.0000000e+00 
6.8600000e+00 5.9900000e+00 0.0000000e+00 
6.8600000e+00 6.0100000e+00 0.0000000e+00 
6.8600000e+00 6.0300000e+00 0.0000000e+00 
6.8866667e+00 5.9700000e+00 0.0000000e+00 
6.8866667e+00 5.9900000e+00 0.0000000e+00 
6.8866667e+00 6.0100000e+00 0.0000000e+00 
6.8866667e+00 6.0300000e+00 0.0000000e+00 
6.9133333e+00 5.9700000e+00 0.0000000e+00 
6.9133333e+00 5.9900000e+00 0.0000000e+00 
6.9133333e+00 6.0100000e+00 0.0000000e+00 
6.9133333e+00 6.0300000e+00 0.0000000e+00 
6.9400000e+00 5.9700000e+00 0.0000000e+00 
6.9400000e+00 5.9900000e+00 0.0000000e+00 
6.9400000e+00 6.0100000e+00 0.0000000e+00 
6.9400000e+00 6.0300000e+00 0.0000000e+00 
6.9666667e+00 5.9700000e+00 0.0000000e+00 
6.9666667e+00 5.9900000e+00 0.0000000e+00 
6.9666667e+00 6.0100000e+00 0.0000000e+00 
6.9666667e+00 6.0300000e+00 0.0000000e+00 
6.9933333e+00 5.9700000e+00 0.0000000e+00 
6.9933333e+00 5.9900000e+00 0.0000000e+00 
6.9933333e+00 6.0100000e+00 0.0000000e+00 
6.9933333e+00 6.0300000e+00 0.0000000e+00 
7.0200000e+00 5.9700000e+00 0.0000000e+00 
7.0200000e+00 5.9900000e+00 0.0000000e+00 
[...]
POINT_DATA 604
FIELD FieldData 2
DISPLACEMENT 3 604  float
0.0000000e+00 0.0000000e+00 0.0000000e+00 
0.0000000e+00 0.0000000e+00 0.0000000e+00 
-1.8863973e-04 -1.0861610e-04 0.0000000e+00 
-6.1070122e-05 -6.9279189e-05 0.0000000e+00 
0.0000000e+00 0.0000000e+00 0.0000000e+00 
5.9241854e-05 -6.9797314e-05 0.0000000e+00 
-3.8537917e-04 -3.5511276e-04 0.0000000e+00 
-1.3072371e-04 -3.2339020e-04 0.0000000e+00 
0.0000000e+00 0.0000000e+00 0.0000000e+00 
1.8650663e-04 -1.0998514e-04 0.0000000e+00 
1.2495358e-04 -3.2523882e-04 0.0000000e+00 
-5.8515850e-04 -7.7857051e-04 0.0000000e+00 
3.7880283e-04 -3.6037818e-04 0.0000000e+00 
-1.9953338e-04 -7.4808381e-04 0.0000000e+00 
1.8544959e-04 -7.5199521e-04 0.0000000e+00 
5.6975438e-04 -7.9003597e-04 0.0000000e+00 
-7.8850568e-04 -1.3739739e-03 0.0000000e+00 
-2.7230315e-04 -1.3464450e-03 0.0000000e+00 
2.4317676e-04 -1.3532886e-03 0.0000000e+00 
7.5761538e-04 -1.3942474e-03 0.0000000e+00 
-9.9666094e-04 -2.1422057e-03 0.0000000e+00 
-3.4960538e-04 -2.1184156e-03 0.0000000e+00 
2.9646218e-04 -2.1290550e-03 0.0000000e+00 
9.4130491e-04 -2.1738614e-03 0.0000000e+00 
-1.2106897e-03 -3.0834471e-03 0.0000000e+00 
-4.3262657e-04 -3.0642759e-03 0.0000000e+00 
3.4419967e-04 -3.0795703e-03 0.0000000e+00 
1.1195968e-03 -3.1290678e-03 0.0000000e+00 
-1.4316811e-03 -4.1978871e-03 0.0000000e+00 
-5.2248987e-04 -4.1842070e-03 0.0000000e+00 
3.8521369e-04 -4.2050186e-03 0.0000000e+00 
1.2912848e-03 -4.2600596e-03 0.0000000e+00 
-1.6607254e-03 -5.4856559e-03 0.0000000e+00 
-6.2032666e-04 -5.4783412e-03 0.0000000e+00 
4.1833358e-04 -5.5055330e-03 0.0000000e+00 
1.4551579e-03 -5.5669703e-03 0.0000000e+00 
-1.8989134e-03 -6.9468325e-03 0.0000000e+00 
-7.2726840e-04 -6.9467571e-03 0.0000000e+00 
4.4238752e-04 -6.9811923e-03 0.0000000e+00 
1.6100045e-03 -7.0498790e-03 0.0000000e+00 
-2.1473356e-03 -8.5814430e-03 0.0000000e+00 
-8.4444603e-04 -8.5894802e-03 0.0000000e+00 
4.5620438e-04 -8.6320210e-03 0.0000000e+00 
1.7546128e-03 -8.7088090e-03 0.0000000e+00 
-2.4070806e-03 -1.0389462e-02 0.0000000e+00 
-9.7298876e-04 -1.0406483e-02 0.0000000e+00 
4.5861453e-04 -1.0457990e-02 0.0000000e+00 
1.8877745e-03 -1.0543729e-02 0.0000000e+00 
-2.6792342e-03 -1.2370811e-02 0.0000000e+00 
-1.1140227e-03 -1.2397684e-02 0.0000000e+00 
4.4845185e-04 -1.2459014e-02 0.0000000e+00 
2.0082813e-03 -1.2554553e-02 0.0000000e+00 
-2.9648780e-03 -1.4525359e-02 0.0000000e+00 
-1.2686697e-03 -1.4562949e-02 0.0000000e+00 
4.2455438e-04 -1.4634957e-02 0.0000000e+00 
2.1149331e-03 -1.4741138e-02 0.0000000e+00 
-3.2650882e-03 -1.6852925e-02 0.0000000e+00 
-1.4380460e-03 -1.6902092e-02 0.0000000e+00 
3.8576621e-04 -1.6985627e-02 0.0000000e+00 
2.2065335e-03 -1.7103289e-02 0.0000000e+00 
-3.5809349e-03 -1.9353276e-02 0.0000000e+00 
-1.6232613e-03 -1.9414874e-02 0.0000000e+00 
3.3093816e-04 -1.9510778e-02 0.0000000e+00 
2.2818952e-03 -1.9640756e-02 0.0000000e+00 
-3.9134803e-03 -2.2026126e-02 0.0000000e+00 
-1.8254174e-03 -2.2101003e-02 0.0000000e+00 
2.5892942e-04 -2.2210115e-02 0.0000000e+00 
2.3398378e-03 -2.2353235e-02 0.0000000e+00 
-4.2637782e-03 -2.4871140e-02 0.0000000e+00 
-2.0456070e-03 -2.4960136e-02 0.0000000e+00 
1.6860853e-04 -2.5083285e-02 0.0000000e+00 
2.3791909e-03 -2.5240368e-02 0.0000000e+00 
-4.6328722e-03 -2.7887933e-02 0.0000000e+00 
-2.2849123e-03 -2.7991880e-02 0.0000000e+00 
5.8854563e-05 -2.8129887e-02 0.0000000e+00 
2.3987963e-03 -2.8301744e-02 0.0000000e+00 
-5.0217954e-03 -3.1076069e-02 0.0000000e+00 
-2.5444045e-03 -3.1195790e-02 0.0000000e+00 
-7.1441384e-05 -3.1349468e-02 0.0000000e+00 
2.3975064e-03 -3.1536902e-02 0.0000000e+00 
-5.4315686e-03 -3.4435065e-02 0.0000000e+00 
-2.8251421e-03 -3.4571372e-02 0.0000000e+00 
-2.2337501e-04 -3.4741524e-02 0.0000000e+00 
2.3741878e-03 -3.4945329e-02 0.0000000e+00 
-5.8631999e-03 -3.7964388e-02 0.0000000e+00 
-3.1281701e-03 -3.8118083e-02 0.0000000e+00 
-3.9802817e-04 -3.8305500e-02 0.0000000e+00 
2.3277242e-03 -3.8526458e-02 0.0000000e+00 
-6.3176833e-03 -4.1663459e-02 0.0000000e+00 
-3.4545190e-03 -4.1835331e-02 0.0000000e+00 
-5.9646761e-04 -4.2040794e-02 0.0000000e+00 
2.2570122e-03 -4.2279676e-02 0.0000000e+00 
-6.7959971e-03 -4.5531651e-02 0.0000000e+00 
-3.8052035e-03 -4.5722479e-02 0.0000000e+00 
-8.1974406e-04 -4.5946755e-02 0.0000000e+00 
2.1609646e-03 -4.6204320e-02 0.0000000e+00 
-7.2991032e-03 -4.9568290e-02 0.0000000e+00 
-4.1812216e-03 -4.9778839e-02 0.0000000e+00 
-1.0688918e-03 -5.0022684e-02 0.0000000e+00 
2.0385133e-03 -5.0299677e-02 0.0000000e+00 
-7.8279463e-03 -5.3772658e-02 0.0000000e+00 
-4.5835536e-03 -5.4003677e-02 0.0000000e+00 
-1.3449262e-03 -5.4267831e-02 0.0000000e+00 
1.8886043e-03 -5.4564985e-02 0.0000000e+00 
-8.3834522e-03 -5.8143987e-02 0.0000000e+00 
-5.0131606e-03 -5.8396212e-02 0.0000000e+00 
-1.6488438e-03 -5.8681402e-02 0.0000000e+00 
1.7102080e-03 -5.8999434e-02 0.0000000e+00 
-8.9665280e-03 -6.2681467e-02 0.0000000e+00 
-5.4709841e-03 -6.2955618e-02 0.0000000e+00 
-1.9816199e-03 -6.3262554e-02 0.0000000e+00 
1.5023144e-03 -6.3602165e-02 0.0000000e+00 
-9.5780606e-03 -6.7384243e-02 0.0000000e+00 
-5.9579449e-03 -6.7681023e-02 0.0000000e+00 
-2.3442092e-03 -6.8010400e-02 0.0000000e+00 
1.2639363e-03 -6.8372277e-02 0.0000000e+00 
-1.0218916e-02 -7.2251415e-02 0.0000000e+00 
-6.4749421e-03 -7.2571512e-02 0.0000000e+00 
-2.7375437e-03 -7.2924007e-02 0.0000000e+00 
9.9410808e-04 -7.3308820e-02 0.0000000e+00 
-1.0889939e-02 -7.7282042e-02 0.0000000e+00 
-7.0228527e-03 -7.7626125e-02 0.0000000e+00 
-3.1625326e-03 -7.8002399e-02 0.0000000e+00 
6.9188902e-04 -7.8410801e-02 0.0000000e+00 
-1.1591950e-02 -8.2475142e-02 0.0000000e+00 
-7.6025299e-03 -8.2843861e-02 0.0000000e+00 
-3.6200609e-03 -8.3244558e-02 0.0000000e+00 
3.5636194e-04 -8.3677182e-02 0.0000000e+00 
-1.2325749e-02 -8.7829689e-02 0.0000000e+00 
-8.2148033e-03 -8.8223677e-02 0.0000000e+00 
-4.1109892e-03 -8.8649420e-02 0.0000000e+00 
-1.3364473e-05 -8.9106883e-02 0.0000000e+00 
-1.3092109e-02 -9.3344620e-02 0.0000000e+00 
-8.8604777e-03 -9.3764490e-02 0.0000000e+00 
-4.6361524e-03 -9.4215884e-02 0.0000000e+00 
-4.1815472e-04 -9.4698784e-02 0.0000000e+00 
-1.3891780e-02 -9.9018831e-02 0.0000000e+00 
-9.5403321e-03 -9.9465177e-02 0.0000000e+00 
-5.1963591e-03 -9.9942807e-02 0.0000000e+00 
-8.5884731e-04 -1.0045172e-01 0.0000000e+00 
-1.4725487e-02 -1.0485118e-01 0.0000000e+00 
-1.0255120e-02 -1.0532458e-01 0.0000000e+00 
-5.7923905e-03 -1.0582901e-01 0.0000000e+00 
-1.3362532e-03 -1.0636450e-01 0.0000000e+00 
-1.5593930e-02 -1.1084049e-01 0.0000000e+00 
-1.1005568e-02 -1.1134149e-01 0.0000000e+00 
-6.4250009e-03 -1.1187327e-01 0.0000000e+00 
-1.8511501e-03 -1.1243587e-01 0.0000000e+00 
-1.6497781e-02 -1.1698556e-01 0.0000000e+00 
-1.1792375e-02 -1.1751468e-01 0.0000000e+00 
-7.0949162e-03 -1.1807433e-01 0.0000000e+00 
-2.4042923e-03 -1.1866456e-01 0.0000000e+00 
-1.7437685e-02 -1.2328512e-01 0.0000000e+00 
-1.2616213e-02 -1.2384289e-01 0.0000000e+00 
-7.8028345e-03 -1.2443091e-01 0.0000000e+00 
-2.9964039e-03 -1.2504926e-01 0.0000000e+00 
-1.8414259e-02 -1.2973791e-01 0.0000000e+00 
-1.3477727e-02 -1.3032480e-01 0.0000000e+00 
-8.5494257e-03 -1.3094168e-01 0.0000000e+00 
-3.6281783e-03 -1.3158863e-01 0.0000000e+00 
-1.9428094e-02 -1.3634260e-01 0.0000000e+00 
-1.4377529e-02 -1.3695909e-01 0.0000000e+00 
-9.3353291e-03 -1.3760529e-01 0.0000000e+00 
-4.3002848e-03 -1.3828129e-01 0.0000000e+00 
-2.0479748e-02 -1.4309785e-01 0.0000000e+00 
-1.5316206e-02 -1.4374438e-01 0.0000000e+00 
-1.0161154e-02 -1.4442032e-01 0.0000000e+00 
-5.0133552e-03 -1.4512581e-01 0.0000000e+00 
-2.1569754e-02 -1.5000228e-01 0.0000000e+00 
-1.6294311e-02 -1.5067927e-01 0.0000000e+00 
-1.1027479e-02 -1.5138538e-01 0.0000000e+00 
-5.7679913e-03 -1.5212075e-01 0.0000000e+00 
-2.2698613e-02 -1.5705448e-01 0.0000000e+00 
-1.7312370e-02 -1.5776232e-01 0.0000000e+00 
-1.1934852e-02 -1.5849898e-01 0.0000000e+00 
-6.5647629e-03 -1.5926463e-01 0.0000000e+00 
-2.3866798e-02 -1.6425301e-01 0.0000000e+00 
-1.8370877e-02 -1.6499208e-01 0.0000000e+00 
-1.2883788e-02 -1.6575966e-01 0.0000000e+00 
-7.4042079e-03 -1.6655594e-01 0.0000000e+00 
-2.5074751e-02 -1.7159640e-01 0.0000000e+00 
-1.9470296e-02 -1.7236704e-01 0.0000000e+00 
-1.3874772e-02 -1.7316589e-01 0.0000000e+00 
-8.2868317e-03 -1.7399314e-01 0.0000000e+00 
-2.6322885e-02 -1.7908316e-01 0.0000000e+00 
-2.0611058e-02 -1.7988570e-01 0.0000000e+00 
-1.4908257e-02 -1.8071614e-01 0.0000000e+00 
-9.2131073e-03 -1.8157468e-01 0.0000000e+00 
-2.7611582e-02 -1.8671177e-01 0.0000000e+00 
-2.1793566e-02 -1.8754651e-01 0.0000000e+00 
-1.5984663e-02 -1.8840883e-01 0.0000000e+00 
-1.0183474e-02 -1.8929895e-01 0.0000000e+00 
-2.8941194e-02 -1.9448068e-01 0.0000000e+00 
-2.3018191e-02 -1.9534790e-01 0.0000000e+00 
-1.7104380e-02 -1.9624237e-01 0.0000000e+00 
-1.1198340e-02 -1.9716434e-01 0.0000000e+00 
-3.0312043e-02 -2.0238832e-01 0.0000000e+00 
-2.4285270e-02 -2.0328827e-01 0.0000000e+00 
-1.8267762e-02 -2.0421515e-01 0.0000000e+00 
-1.2258077e-02 -2.0516921e-01 0.0000000e+00 
-3.1724419e-02 -2.1043310e-01 0.0000000e+00 
-2.5595111e-02 -2.1136602e-01 0.0000000e+00 
-1.9475136e-02 -2.1232552e-01 0.0000000e+00 
-1.3363028e-02 -2.1331189e-01 0.0000000e+00 
-3.3178584e-02 -2.1861341e-01 0.0000000e+00 
-2.6947992e-02 -2.1957949e-01 0.0000000e+00 
-2.0726792e-02 -2.2057182e-01 0.0000000e+00 
-1.4513499e-02 -2.2159071e-01 0.0000000e+00 
-3.4674766e-02 -2.2692761e-01 0.0000000e+00 
-2.8344155e-02 -2.2792704e-01 0.0000000e+00 
-2.2022990e-02 -2.2895238e-01 0.0000000e+00 
-1.5709768e-02 -2.3000395e-01 0.0000000e+00 
-3.6213167e-02 -2.3537405e-01 0.0000000e+00 
-2.9783816e-02 -2.3640699e-01 0.0000000e+00 
-2.3363957e-02 -2.3746548e-01 0.0000000e+00 
-1.6952069e-02 -2.3854989e-01 0.0000000e+00 
-3.7793957e-02 -2.4395106e-01 0.0000000e+00 
-3.1267156e-02 -2.4501764e-01 0.0000000e+00 
-2.4749889e-02 -2.4610943e-01 0.0000000e+00 
-1.8240614e-02 -2.4722679e-01 0.0000000e+00 
-3.9417274e-02 -2.5265695e-01 0.0000000e+00 
-3.2794328e-02 -2.5375728e-01 0.0000000e+00 
-2.6180949e-02 -2.5488247e-01 0.0000000e+00 
-1.9575579e-02 -2.5603290e-01 0.0000000e+00 
-4.1083226e-02 -2.6149002e-01 0.0000000e+00 
-3.4365452e-02 -2.6262419e-01 0.0000000e+00 
-2.7657271e-02 -2.6378286e-01 0.0000000e+00 
-2.0957108e-02 -2.6496643e-01 0.0000000e+00 
-4.2791892e-02 -2.7044855e-01 0.0000000e+00 
-3.5980617e-02 -2.7161662e-01 0.0000000e+00 
-2.9178957e-02 -2.7280883e-01 0.0000000e+00 
-2.2385318e-02 -2.7402560e-01 0.0000000e+00 
-4.4543317e-02 -2.7953081e-01 0.0000000e+00 
-3.7639882e-02 -2.8073281e-01 0.0000000e+00 
-3.0746074e-02 -2.8195860e-01 0.0000000e+00 
-2.3860287e-02 -2.8320861e-01 0.0000000e+00 
-4.6337519e-02 -2.8873504e-01 0.0000000e+00 
-3.9343273e-02 -2.8997099e-01 0.0000000e+00 
-3.2358661e-02 -2.9123037e-01 0.0000000e+00 
-2.5382063e-02 -2.9251362e-01 0.0000000e+00 
-4.8174485e-02 -2.9805948e-01 0.0000000e+00 
-4.1090786e-02 -2.9932938e-01 0.0000000e+00 
-3.4016724e-02 -3.0062233e-01 0.0000000e+00 
-2.6950662e-02 -3.0193882e-01 0.0000000e+00 
-5.0054171e-02 -3.0750236e-01 0.0000000e+00 
-4.2882388e-02 -3.0880617e-01 0.0000000e+00 
-3.5720236e-02 -3.1013266e-01 0.0000000e+00 
-2.8566066e-02 -3.1148235e-01 0.0000000e+00 
-5.1976506e-02 -3.1706188e-01 0.0000000e+00 
-4.4718015e-02 -3.1839955e-01 0.0000000e+00 
-3.7469143e-02 -3.1975953e-01 0.0000000e+00 
-3.0228229e-02 -3.2114235e-01 0.0000000e+00 
-5.3941389e-02 -3.2673625e-01 0.0000000e+00 
-4.6597572e-02 -3.2810770e-01 0.0000000e+00 
-3.9263358e-02 -3.2950109e-01 0.0000000e+00 
-3.1937072e-02 -3.3091697e-01 0.0000000e+00 
-5.5948690e-02 -3.3652366e-01 0.0000000e+00 
-4.8520938e-02 -3.3792879e-01 0.0000000e+00 
-4.1102765e-02 -3.3935550e-01 0.0000000e+00 
-3.3692485e-02 -3.4080433e-01 0.0000000e+00 
-5.7998252e-02 -3.4642229e-01 0.0000000e+00 
-5.0487961e-02 -3.4786098e-01 0.0000000e+00 
-4.2987217e-02 -3.4932088e-01 0.0000000e+00 
-3.5494329e-02 -3.5080254e-01 0.0000000e+00 
-6.0089891e-02 -3.5643031e-01 0.0000000e+00 
-5.2498459e-02 -3.5790243e-01 0.0000000e+00 
-4.4916539e-02 -3.5939537e-01 0.0000000e+00 
-3.7342431e-02 -3.6090972e-01 0.0000000e+00 
-6.2223396e-02 -3.6654591e-01 0.0000000e+00 
-5.4552227e-02 -3.6805128e-01 0.0000000e+00 
-4.6890528e-02 -3.6957710e-01 0.0000000e+00 
-3.9236592e-02 -3.7112397e-01 0.0000000e+00 
-6.4398526e-02 -3.7676723e-01 0.0000000e+00 
-5.6649028e-02 -3.7830567e-01 0.0000000e+00 
-4.8908954e-02 -3.7986419e-01 0.0000000e+00 
-4.1176586e-02 -3.8144340e-01 0.0000000e+00 
-6.6615016e-02 -3.8709244e-01 0.0000000e+00 
-5.8788602e-02 -3.8866375e-01 0.0000000e+00 
-5.0971557e-02 -3.9025476e-01 0.0000000e+00 
-4.3162157e-02 -3.9186610e-01 0.0000000e+00 
-6.8872573e-02 -3.9751970e-01 0.0000000e+00 
-6.0970657e-02 -3.9912365e-01 0.0000000e+00 
-5.3078054e-02 -4.0074692e-01 0.0000000e+00 
-4.5193028e-02 -4.0239016e-01 0.0000000e+00 
-7.1170876e-02 -4.0804714e-01 0.0000000e+00 
-6.3194879e-02 -4.0968349e-01 0.0000000e+00 
-5.5228130e-02 -4.1133878e-01 0.0000000e+00 
-4.7268888e-02 -4.1301367e-01 0.0000000e+00 
-7.3509580e-02 -4.1867290e-01 0.0000000e+00 
-6.5460923e-02 -4.2034139e-01 0.0000000e+00 
-5.7421445e-02 -4.2202843e-01 0.0000000e+00 
-4.9389399e-02 -4.2373471e-01 0.0000000e+00 
-7.5888315e-02 -4.2939514e-01 0.0000000e+00 
-6.7768422e-02 -4.3109547e-01 0.0000000e+00 
-5.9657633e-02 -4.3281398e-01 0.0000000e+00 
-5.1554196e-02 -4.3455136e-01 0.0000000e+00 
-7.8306685e-02 -4.4021197e-01 0.0000000e+00 
-7.0116982e-02 -4.4194385e-01 0.0000000e+00 
-6.1936302e-02 -4.4369353e-01 0.0000000e+00 
-5.3762889e-02 -4.4546171e-01 0.0000000e+00 
-8.0764273e-02 -4.5112154e-01 0.0000000e+00 
-7.2506184e-02 -4.5288464e-01 0.0000000e+00 
-6.4257035e-02 -4.5466516e-01 0.0000000e+00 
-5.6015063e-02 -4.5646382e-01 0.0000000e+00 
-8.3260634e-02 -4.6212198e-01 0.0000000e+00 
-7.4935588e-02 -4.6391596e-01 0.0000000e+00 
-6.6619390e-02 -4.6572698e-01 0.0000000e+00 
-5.8310277e-02 -4.6755578e-01 0.0000000e+00 
-8.5795305e-02 -4.7321141e-01 0.0000000e+00 
-7.7404726e-02 -4.7503591e-01 0.0000000e+00 
-6.9022902e-02 -4.7687708e-01 0.0000000e+00 
-6.0648064e-02 -4.7873565e-01 0.0000000e+00 
-8.8367798e-02 -4.8438796e-01 0.0000000e+00 
-7.9913113e-02 -4.8624262e-01 0.0000000e+00 
-7.1467082e-02 -4.8811356e-01 0.0000000e+00 
-6.3027937e-02 -4.9000153e-01 0.0000000e+00 
-9.0977604e-02 -4.9564977e-01 0.0000000e+00 
-8.2460236e-02 -4.9753418e-01 0.0000000e+00 
-7.3951420e-02 -4.9943451e-01 0.0000000e+00 
-6.5449382e-02 -5.0135150e-01 0.0000000e+00 
-9.3624193e-02 -5.0699497e-01 0.0000000e+00 
-8.5045566e-02 -5.0890873e-01 0.0000000e+00 
-7.6475381e-02 -5.1083803e-01 0.0000000e+00 
-6.7911866e-02 -5.1278362e-01 0.0000000e+00 
-9.6307016e-02 -5.1842168e-01 0.0000000e+00 
-8.7668549e-02 -5.2036437e-01 0.0000000e+00 
-7.9038413e-02 -5.2232222e-01 0.0000000e+00 
-7.0414832e-02 -5.2429600e-01 0.0000000e+00 
-9.9025502e-02 -5.2992804e-01 0.0000000e+00 
-9.0328614e-02 -5.3189922e-01 0.0000000e+00 
-8.1639938e-02 -5.3388519e-01 0.0000000e+00 
-7.2957705e-02 -5.3588672e-01 0.0000000e+00 
-1.0177907e-01 -5.4151220e-01 0.0000000e+00 
-9.3025170e-02 -5.4351142e-01 0.0000000e+00 
-8.4279363e-02 -5.4552505e-01 0.0000000e+00 
-7.5539880e-02 -5.4755388e-01 0.0000000e+00 
-1.0456711e-01 -5.5317229e-01 0.0000000e+00 
-9.5757609e-02 -5.5519908e-01 0.0000000e+00 
-8.6956076e-02 -5.5723991e-01 0.0000000e+00 
-7.8160744e-02 -5.5929558e-01 0.0000000e+00 
-1.0738900e-01 -5.6490646e-01 0.0000000e+00 
-9.8525305e-02 -5.6696035e-01 0.0000000e+00 
-8.9669445e-02 -5.6902790e-01 0.0000000e+00 
-8.0819661e-02 -5.7110993e-01 0.0000000e+00 
-1.1024411e-01 -5.7671287e-01 0.0000000e+00 
-1.0132762e-01 -5.7879337e-01 0.0000000e+00 
-9.2418825e-02 -5.8088715e-01 0.0000000e+00 
-8.3515979e-02 -5.8299506e-01 0.0000000e+00 
-1.1313178e-01 -5.8858968e-01 0.0000000e+00 
-1.0416388e-01 -5.9069628e-01 0.0000000e+00 
-9.5203552e-02 -5.9281580e-01 0.0000000e+00 
-8.6249034e-02 -5.9494907e-01 0.0000000e+00 
-1.1605134e-01 -6.0053506e-01 0.0000000e+00 
-1.0703343e-01 -6.0266724e-01 0.0000000e+00 
-9.8022945e-02 -6.0481198e-01 0.0000000e+00 
-8.9018140e-02 -6.0697011e-01 0.0000000e+00 
-1.1900211e-01 -6.1254717e-01 0.0000000e+00 
-1.0993556e-01 -6.1470440e-01 0.0000000e+00 
-1.0087631e-01 -6.1687384e-01 0.0000000e+00 
-9.1822595e-02 -6.1905630e-01 0.0000000e+00 
-1.2198338e-01 -6.2462419e-01 0.0000000e+00 
-1.1286958e-01 -6.2680594e-01 0.0000000e+00 
-1.0376293e-01 -6.2899953e-01 0.0000000e+00 
-9.4661681e-02 -6.3120580e-01 0.0000000e+00 
-1.2499445e-01 -6.3676430e-01 0.0000000e+00 
-1.1583477e-01 -6.3897003e-01 0.0000000e+00 
-1.0668209e-01 -6.4118723e-01 0.0000000e+00 
-9.7534667e-02 -6.4341676e-01 0.0000000e+00 
-1.2803460e-01 -6.4896570e-01 0.0000000e+00 
-1.1883040e-01 -6.5119485e-01 0.0000000e+00 
-1.0963304e-01 -6.5343512e-01 0.0000000e+00 
-1.0044081e-01 -6.5568735e-01 0.0000000e+00 
-1.3110309e-01 -6.6122660e-01 0.0000000e+00 
-1.2185572e-01 -6.6347860e-01 0.0000000e+00 
-1.1261505e-01 -6.6574136e-01 0.0000000e+00 
-1.0337935e-01 -6.6801575e-01 0.0000000e+00 
-1.3419919e-01 -6.7354520e-01 0.0000000e+00 
-1.2491000e-01 -6.7581949e-01 0.0000000e+00 
-1.1562735e-01 -6.7810418e-01 0.0000000e+00 
-1.0634952e-01 -6.8040014e-01 0.0000000e+00 
-1.3732214e-01 -6.8591973e-01 0.0000000e+00 
-1.2799246e-01 -6.8821572e-01 0.0000000e+00 
-1.1866916e-01 -6.9052177e-01 0.0000000e+00 
-1.0935055e-01 -6.9283875e-01 0.0000000e+00 
-1.4047120e-01 -6.9834844e-01 0.0000000e+00 
-1.3110235e-01 -7.0066555e-01 0.0000000e+00 
-1.2173973e-01 -7.0299238e-01 0.0000000e+00 
-1.1238164e-01 -7.0532978e-01 0.0000000e+00 
-1.4364560e-01 -7.1082957e-01 0.0000000e+00 
-1.3423889e-01 -7.1316721e-01 0.0000000e+00 
-1.2483825e-01 -7.1551423e-01 0.0000000e+00 
-1.1544200e-01 -7.1787148e-01 0.0000000e+00 
-1.4684458e-01 -7.2336139e-01 0.0000000e+00 
-1.3740131e-01 -7.2571897e-01 0.0000000e+00 
-1.2796394e-01 -7.2808559e-01 0.0000000e+00 
-1.1853082e-01 -7.3046211e-01 0.0000000e+00 
-1.5006737e-01 -7.3594219e-01 0.0000000e+00 
-1.4058882e-01 -7.3831912e-01 0.0000000e+00 
-1.3111602e-01 -7.4070475e-01 0.0000000e+00 
-1.2164730e-01 -7.4309994e-01 0.0000000e+00 
-1.5331319e-01 -7.4857026e-01 0.0000000e+00 
-1.4380065e-01 -7.5096594e-01 0.0000000e+00 
-1.3429367e-01 -7.5336999e-01 0.0000000e+00 
-1.2479064e-01 -7.5578326e-01 0.0000000e+00 
-1.5658128e-01 -7.6124393e-01 0.0000000e+00 
-1.4703599e-01 -7.6365775e-01 0.0000000e+00 
-1.3749610e-01 -7.6607962e-01 0.0000000e+00 
-1.2796001e-01 -7.6851038e-01 0.0000000e+00 
-1.5987084e-01 -7.7396151e-01 0.0000000e+00 
-1.5029405e-01 -7.7639288e-01 0.0000000e+00 
-1.4072251e-01 -7.7883197e-01 0.0000000e+00 
-1.3115460e-01 -7.8127962e-01 0.0000000e+00 
-1.6318112e-01 -7.8672137e-01 0.0000000e+00 
-1.5357406e-01 -7.8916968e-01 0.0000000e+00 
-1.4397207e-01 -7.9162539e-01 0.0000000e+00 
-1.3437359e-01 -7.9408934e-01 0.0000000e+00 
-1.6651132e-01 -7.9952188e-01 0.0000000e+00 
-1.5687520e-01 -8.0198652e-01 0.0000000e+00 
-1.4724400e-01 -8.0445825e-01 0.0000000e+00 
-1.3761614e-01 -8.0693791e-01 0.0000000e+00 
-1.6986068e-01 -8.1236141e-01 0.0000000e+00 
-1.6019671e-01 -8.1484179e-01 0.0000000e+00 
-1.5053747e-01 -8.1732895e-01 0.0000000e+00 
-1.4088144e-01 -8.1982372e-01 0.0000000e+00 
-1.7322844e-01 -8.2523838e-01 0.0000000e+00 
-1.6353778e-01 -8.2773390e-01 0.0000000e+00 
-1.5385170e-01 -8.3023589e-01 0.0000000e+00 
-1.4416868e-01 -8.3274519e-01 0.0000000e+00 
-1.7661381e-01 -8.3815123e-01 0.0000000e+00 
-1.6689764e-01 -8.4066129e-01 0.0000000e+00 
-1.5718587e-01 -8.4317752e-01 0.0000000e+00 
-1.4747702e-01 -8.4570076e-01 0.0000000e+00 
-1.8001606e-01 -8.5109841e-01 0.0000000e+00 
-1.7027551e-01 -8.5362242e-01 0.0000000e+00 
-1.6053919e-01 -8.5615231e-01 0.0000000e+00 
-1.5080565e-01 -8.5868890e-01 0.0000000e+00 
-1.8343444e-01 -8.6407841e-01 0.0000000e+00 
-1.7367061e-01 -8.6661578e-01 0.0000000e+00 
-1.6391087e-01 -8.6915875e-01 0.0000000e+00 
-1.5415377e-01 -8.7170811e-01 0.0000000e+00 
-1.8686819e-01 -8.7708974e-01 0.0000000e+00 
-1.7708220e-01 -8.7963988e-01 0.0000000e+00 
-1.6730013e-01 -8.8219535e-01 0.0000000e+00 
-1.5752056e-01 -8.8475693e-01 0.0000000e+00 