# vtk DataFile Version 4.0
vtk output
ASCII
DATASET UNSTRUCTURED_GRID
POINTS 604 float
5.5000000e+00 5.9700000e+00 0.0000000e+00 
5.5000000e+00 5.9900000e+00 0.0000000e+00 
5.5266667e+00 5.9700000e+00 0.0000000e+00 
5.5266667e+00 5.9900000e+00 0.0000000e+00 
5.5000000e+00 6.0100000e+00 0.0000000e+00 
5.5266667e+00 6.0100000e+00 0.0000000e+00 
5.5533333e+00 5.9700000e+00 0.0000000e+00 
5.5533333e+00 5.9900000e+00 0.0000000e+00 
5.5000000e+00 6.0300000e+00 0.0000000e+00 
5.5266667e+00 6.0300000e+00 0.0000000e+00 
5.5533333e+00 6.0100000e+00 0.0000000e+00 
5.5800000e+00 5.9700000e+00 0.0000000e+00 
5.5533333e+00 6.0300000e+00 0.0000000e+00 
5.5800000e+00 5.9900000e+00 0.0000000e+00 
5.5800000e+00 6.0100000e+00 0.0000000e+00 
5.5800000e+00 6.0300000e+00 0.0000000e+00 
5.6066667e+00 5.9700000e+00 0.0000000e+00 
5.6066667e+00 5.9900000e+00 0.0000000e+00 
5.6066667e+00 6.0100000e+00 0.0000000e+00 
5.6066667e+00 6.0300000e+00 0.0000000e+00 
5.6333333e+00 5.9700000e+00 0.0000000e+00 
5.6333333e+00 5.9900000e+00 0.0000000e+00 
5.6333333e+00 6.0100000e+00 0.0000000e+00 
5.6333333e+00 6.0300000e+00 0.0000000e+00 
5.6600000e+00 5.9700000e+00 0.0000000e+00 
5.6600000e+00 5.9900000e+00 0.0000000e+00 
5.6600000e+00 6.0100000e+00 0.0000000e+00 
5.6600000e+00 6.0300000e+00 0.0000000e+00 
5.6866667e+00 5.9700000e+00 0.0000000e+00 
5.6866667e+00 5.9900000e+00 0.0000000e+00 
5.6866667e+00 6.0100000e+00 0.0000000e+00 
5.6866667e+00 6.0300000e+00 0.0000000e+00 
5.7133333e+00 5.9700000e+00 0.0000000e+00 
5.7133333e+00 5.9900000e+00 0.0000000e+00 
5.7133333e+00 6.0100000e+00 0.0000000e+00 
5.7133333e+00 6.0300000e+00 0.0000000e+00 
5.7400000e+00 5.9700000e+00 0.0000000e+00 
5.7400000e+00 5.9900000e+00 0.0000000e+00 
5.7400000e+00 6.0100000e+00 0.0000000e+00 
5.7400000e+00 6.0300000e+00 0.0000000e+00 
5.7666667e+00 5.9700000e+00 0.0000000e+00 
5.7666667e+00 5.9900000e+00 0.0000000e+00 
5.7666667e+00 6.0100000e+00 0.0000000e+00 
5.7666667e+00 6.0300000e+00 0.0000000e+00 
5.7933333e+00 5.9700000e+00 0.0000000e+00 
5.7933333e+00 5.9900000e+00 0.0000000e+00 
5.7933333e+00 6.0100000e+00 0.0000000e+00 
5.7933333e+00 6.0300000e+00 0.0000000e+00 
5.8200000e+00 5.9700000e+00 0.0000000e+00 
5.8200000e+00 5.9900000e+00 0.0000000e+00 
5.8200000e+00 6.0100000e+00 0.0000000e+00 
5.8200000e+00 6.0300000e+00 0.0000000e+00 
5.8466667e+00 5.9700000e+00 0.0000000e+00 
5.8466667e+00 5.9900000e+00 0.0000000e+00 
5.8466667e+00 6.0100000e+00 0.0000000e+00 
5.8466667e+00 6.0300000e+00 0.0000000e+00 
5.8733333e+00 5.9700000e+00 0.0000000e+00 
5.8733333e+00 5.9900000e+00 0.0000000e+00 
5.8733333e+00 6.0100000e+00 0.0000000e+00 
5.8733333e+00 6.0300000e+00 0.0000000e+00 
5.9000000e+00 5.9700000e+00 0.0000000e+00 
5.9000000e+00 5.9900000e+00 0.0000000e+00 
5.9000000e+00 6.0100000e+00 0.0000000e+00 
5.9000000e+00 6.0300000e+00 0.0000000e+00 
5.9266667e+00 5.9700000e+00 0.0000000e+00 
5.9266667e+00 5.9900000e+00 0.0000000e+00 
5.9266667e+00 6.0100000e+00 0.0000000e+00 
5.9266667e+00 6.0300000e+00 0.0000000e+00 
5.9533333e+00 5.9700000e+00 0.0000000e+00 
5.9533333e+00 5.9900000e+00 0.0000000e+00 
5.9533333e+00 6.0100000e+00 0.0000000e+00 
5.9533333e+00 6.0300000e+00 0.0000000e+00 
5.9800000e+00 5.9700000e+00 0.0000000e+00 
5.9800000e+00 5.9900000e+00 0.0000000e+00 
5.9800000e+00 6.0100000e+00 0.0000000e+00 
5.9800000e+00 6.0300000e+00 0.0000000e+00 
6.0066667e+00 5.9700000e+00 0.0000000e+00 
6.0066667e+00 5.9900000e+00 0.0000000e+00 
6.0066667e+00 6.0100000e+00 0.0000000e+00 
6.0066667e+00 6.0300000e+00 0.0000000e+00 
6.0333333e+00 5.9700000e+00 0.0000000e+00 
6.0333333e+00 5.9900000e+00 0.0000000e+00 
6.0333333e+00 6.0100000e+00 0.0000000e+00 
6.0333333e+00 6.0300000e+00 0.0000000e+00 
6.0600000e+00 5.9700000e+00 0.0000000e+00 
6.0600000e+00 5.9900000e+00 0.0000000e+00 
6.0600000e+00 6.0100000e+00 0.0000000e+00 
6.0600000e+00 6.0300000e+00 0.0000000e+00 
6.0866667e+00 5.9700000e+00 0.0000000e+00 
6.0866667e+00 5.9900000e+00 0.0000000e+00 
6.0866667e+00 6.0100000e+00 0.0000000e+00 
6.0866667e+00 6.0300000e+00 0.0000000e+00 
6.1133333e+00 5.9700000e+00 0.0000000e+00 
6.1133333e+00 5.9900000e+00 0.0000000e+00 
6.1133333e+00 6.0100000e+00 0.0000000e+00 
6.1133333e+00 6.0300000e+00 0.0000000e+00 
6.1400000e+00 5.9700000e+00 0.0000000e+00 
6.1400000e+00 5.9900000e+00 0.0000000e+00 
6.1400000e+00 6.0100000e+00 0.0000000e+00 
6.1400000e+00 6.0300000e+00 0.0000000e+00 
6.1666667e+00 5.9700000e+00 0.0000000e+00 
6.1666667e+00 5.9900000e+00 0.0000000e+00 
6.1666667e+00 6.0100000e+00 0.0000000e+00 
6.1666667e+00 6.0300000e+00 0.0000000e+00 
6.1933333e+00 5.9700000e+00 0.0000000e+00 
6.1933333e+00 5.9900000e+00 0.0000000e+00 
6.1933333e+00 6.0100000e+00 0.0000000e+00 
6.1933333e+00 6.0300000e+00 0.0000000e+00 
6.2200000e+00 5.9700000e+00 0.0000000e+00 
6.2200000e+00 5.9900000e+00 0.0000000e+00 
6.2200000e+00 6.0100000e+00 0.0000000e+00 
6.2200000e+00 6.0300000e+00 0.0000000e+00 
6.2466667e+00 5.9700000e+00 0.0000000e+00 
6.2466667e+00 5.9900000e+00 0.0000000e+00 
6.2466667e+00 6.0100000e+00 0.0000000e+00 
6.2466667e+00 6.0300000e+00 0.0000000e+00 
6.2733333e+00 5.9700000e+00 0.0000000e+00 
6.2733333e+00 5.9900000e+00 0.0000000e+00 
6.2733333e+00 6.0100000e+00 0.0000000e+00 
6.2733333e+00 6.0300000e+00 0.0000000e+00 
6.3000000e+00 5.9700000e+00 0.0000000e+00 
6.3000000e+00 5.9900000e+00 0.0000000e+00 
6.3000000e+00 6.0100000e+00 0.0000000e+00 
6.3000000e+00 6.0300000e+00 0.0000000e+00 
6.3266667e+00 5.9700000e+00 0.0000000e+00 
6.3266667e+00 5.9900000e+00 0.0000000e+00 
6.3266667e+00 6.0100000e+00 0.0000000e+00 
6.3266667e+00 6.0300000e+00 0.0000000e+00 
6.3533333e+00 5.9700000e+00 0.0000000e+00 
6.3533333e+00 5.9900000e+00 0.0000000e+00 
6.3533333e+00 6.0100000e+00 0.0000000e+00 
6.3533333e+00 6.0300000e+00 0.0000000e+00 
6.3800000e+00 5.9700000e+00 0.0000000e+00 
6.3800000e+00 5.9900000e+00 0.0000000e+00 
6.3800000e+00 6.0100000e+00 0.0000000e+00 
6.3800000e+00 6.0300000e+00 0.0000000e+00 
6.4066667e+00 5.9700000e+00 0.0000000e+00 
6.4066667e+00 5.9900000e+00 0.0000000e+00 
6.4066667e+00 6.0100000e+00 0.0000000e+00 
6.4066667e+00 6.0300000e+00 0.0000000e+00 
6.4333333e+00 5.9700000e+00 0.0000000e+00 
6.4333333e+00 5.9900000e+00 0.0000000e+00 
6.4333333e+00 6.0100000e+00 0.0000000e+00 
6.4333333e+00 6.0300000e+00 0.0000000e+00 
6.4600000e+00 5.9700000e+00 0.0000000e+00 
6.4600000e+00 5.9900000e+00 0.0000000e+00 
6.4600000e+00 6.0100000e+00 0.0000000e+00 
6.4600000e+00 6.0300000e+00 0.0000000e+00 
6.4866667e+00 5.9700000e+00 0.0000000e+00 
6.4866667e+00 5.9900000e+00 0.0000000e+00 
6.4866667e+00 6.0100000e+00 0.0000000e+00 
6.4866667e+00 6.0300000e+00 0.0000000e+00 
6.5133333e+00 5.9700000e+00 0.0000000e+00 
6.5133333e+00 5.9900000e+00 0.0000000e+00 
6.5133333e+00 6.0100000e+00 0.0000000e+00 
6.5133333e+00 6.0300000e+00 0.0000000e+00 
6.5400000e+00 5.9700000e+00 0.0000000e+00 
6.5400000e+00 5.9900000e+00 0.0000000e+00 
6.5400000e+00 6.0100000e+00 0.0000000e+00 
6.5400000e+00 6.0300000e+00 0.0000000e+00 
6.5666667e+00 5.9700000e+00 0.0000000e+00 
6.5666667e+00 5.9900000e+00 0.0000000e+00 
6.5666667e+00 6.0100000e+00 0.0000000e+00 
6.5666667e+00 6.0300000e+00 0.0000000e+00 
6.5933333e+00 5.9700000e+00 0.0000000e+00 
6.5933333e+00 5.9900000e+00 0.0000000e+00 
6.5933333e+00 6.0100000e+00 0.0000000e+00 
6.5933333e+00 6.0300000e+00 0.0000000e+00 
6.6200000e+00 5.9700000e+00 0.0000000e+00 
6.6200000e+00 5.9900000e+00 0.0000000e+00 
6.6200000e+00 6.0100000e+00 0.0000000e+00 
6.6200000e+00 6.0300000e+00 0.0000000e+00 
6.6466667e+00 5.9700000e+00 0.0000000e+00 
6.6466667e+00 5.9900000e+00 0.0000000e+00 
6.6466667e+00 6.0100000e+00 0.0000000e+00 
6.6466667e+00 6.0300000e+00 0.0000000e+00 
6.6733333e+00 5.9700000e+00 0.0000000e+00 
6.6733333e+00 5.9900000e+00 0.0000000e+00 
6.6733333e+00 6.0100000e+00 0.0000000e+00 
6.6733333e+00 6.0300000e+00 0.0000000e+00 
6.7000000e+00 5.9700000e+00 0.0000000e+00 
6.7000000e+00 5.9900000e+00 0.0000000e+00 
6.7000000e+00 6.0100000e+00 0.0000000e+00 
6.7000000e+00 6.0300000e+00 0.0000000e+00 
6.7266667e+00 5.9700000e+00 0.0000000e+00 
6.7266667e+00 5.9900000e+00 0.0000000e+00 
6.7266667e+00 6.0100000e+00 0.0000000e+00 
6.7266667e+00 6.0300000e+00 0.0000000e+00 
6.7533333e+00 5.9700000e+00 0.0000000e+00 
6.7533333e+00 5.9900000e+00 0.0000000e+00 
6.7533333e+00 6.0100000e+00 0.0000000e+00 
6.7533333e+00 6.0300000e+00 0.0000000e+00 
6.7800000e+00 5.9700000e+00 0.0000000e+00 
6.7800000e+00 5.9900000e+00 0.0000000e+00 
6.7800000e+00 6.0100000e+00 0.0000000e+00 
6.7800000e+00 6.0300000e+00 0.0000000e+00 
6.8066667e+00 5.9700000e+00 0.0000000e+00 
6.8066667e+00 5.9900000e+00 0.0000000e+00 
6.8066667e+00 6.0100000e+00 0.0000000e+00 
6.8066667e+00 6.0300000e+00 0.0000000e+00 
6.8333333e+00 5.9700000e+00 0.0000000e+00 
6.8333333e+00 5.9900000e+00 0.0000000e+00 
6.8333333e+00 6.0100000e+00 0.0000000e+00 
6.8333333e+00 6.0300000e+00 0.0000000e+00 
6.8600000e+00 5.9700000e+00 0.0000000e+00 
6.8600000e+00 5.9900000e+00 0.0000000e+00 
6.8600000e+00 6.0100000e+00 0.0000000e+00 
6.8600000e+00 6.0300000e+00 0.0000000e+00 
6.8866667e+00 5.9700000e+00 0.0000000e+00 
6.8866667e+00 5.9900000e+00 0.0000000e+00 
6.8866667e+00 6.0100000e+00 0.0000000e+00 
6.8866667e+00 6.0300000e+00 0.0000000e+00 
6.9133333e+00 5.9700000e+00 0.0000000e+00 
6.9133333e+00 5.9900000e+00 0.0000000e+00 
6.9133333e+00 6.0100000e+00 0.0000000e+00 
6.9133333e+00 6.0300000e+00 0.0000000e+00 
6.9400000e+00 5.9700000e+00 0.0000000e+00 
6.9400000e+00 5.9900000e+00 0.0000000e+00 
6.9400000e+00 6.0100000e+00 0.0000000e+00 
6.9400000e+00 6.0300000e+00 0.0000000e+00 
6.9666667e+00 5.9700000e+00 0.0000000e+00 
6.9666667e+00 5.9900000e+00 0.0000000e+00 
6.9666667e+00 6.0100000e+00 0.0000000e+00 
6.9666667e+00 6.0300000e+00 0.0000000e+00 
6.9933333e+00 5.9700000e+00 0.0000000e+00 
6.9933333e+00 5.9900000e+00 0.0000000e+00 
6.9933333e+00 6.0100000e+00 0.0000000e+00 
6.9933333e+00 6.0300000e+00 0.0000000e+00 
7.0200000e+00 5.9700000e+00 0.0000000e+00 
7.0200000e+00 5.9900000e+00 0.0000000e+00 
[...]
POINT_DATA 604
FIELD FieldData 2
DISPLACEMENT 3 604  float
0.0000000e+00 0.0000000e+00 0.0000000e+00 
0.0000000e+00 0.0000000e+00 0.0000000e+00 
-5.4407006e-05 -3.4117550e-05 0.0000000e+00 
-1.6882335e-05 -2.2884317e-05 0.0000000e+00 
0.0000000e+00 0.0000000e+00 0.0000000e+00 
1.7523526e-05 -2.3016500e-05 0.0000000e+00 
-1.0845315e-04 -1.0763215e-04 0.0000000e+00 
-3.5547439e-05 -9.8736023e-05 0.0000000e+00 
0.0000000e+00 0.0000000e+00 0.0000000e+00 
5.5079496e-05 -3.4531106e-05 0.0000000e+00 
3.6740742e-05 -9.8989383e-05 0.0000000e+00 
-1.6063937e-04 -2.2978799e-04 0.0000000e+00 
1.0958572e-04 -1.0836225e-04 0.0000000e+00 
-5.2739159e-05 -2.2120188e-04 0.0000000e+00 
5.4131770e-05 -2.2160052e-04 0.0000000e+00 
1.6192629e-04 -2.3097711e-04 0.0000000e+00 
-2.1090743e-04 -3.9717558e-04 0.0000000e+00 
-6.9610217e-05 -3.8918673e-04 0.0000000e+00 
7.0706323e-05 -3.8978983e-04 0.0000000e+00 
2.1187589e-04 -3.9898235e-04 0.0000000e+00 
-2.5939457e-04 -6.0810028e-04 0.0000000e+00 
-8.6074806e-05 -6.0072415e-04 0.0000000e+00 
8.6261713e-05 -6.0157649e-04 0.0000000e+00 
2.5943395e-04 -6.1065866e-04 0.0000000e+00 
-3.0617656e-04 -8.6071098e-04 0.0000000e+00 
-1.0221325e-04 -8.5398211e-04 0.0000000e+00 
1.0077056e-04 -8.5512095e-04 0.0000000e+00 
3.0456882e-04 -8.6413255e-04 0.0000000e+00 
-3.5132662e-04 -1.1531961e-03 0.0000000e+00 
-1.1807862e-04 -1.1471406e-03 0.0000000e+00 
1.1419465e-04 -1.1485970e-03 0.0000000e+00 
3.4726319e-04 -1.1575740e-03 0.0000000e+00 
-3.9490968e-04 -1.4837661e-03 0.0000000e+00 
-1.3371779e-04 -1.4784045e-03 0.0000000e+00 
1.2650562e-04 -1.4802041e-03 0.0000000e+00 
3.8750651e-04 -1.4891766e-03 0.0000000e+00 
-4.3698323e-04 -1.8506556e-03 0.0000000e+00 
-1.4917008e-04 -1.8460031e-03 0.0000000e+00 
1.3768230e-04 -1.8481658e-03 0.0000000e+00 
4.2529579e-04 -1.8571586e-03 0.0000000e+00 
-4.7759822e-04 -2.2521224e-03 0.0000000e+00 
-1.6446790e-04 -2.2481893e-03 0.0000000e+00 
1.4771045e-04 -2.2507303e-03 0.0000000e+00 
4.6063481e-04 -2.2597632e-03 0.0000000e+00 
-5.1679856e-04 -2.6864485e-03 0.0000000e+00 
-1.7963733e-04 -2.6832403e-03 0.0000000e+00 
1.5658221e-04 -2.6861701e-03 0.0000000e+00 
4.9353383e-04 -2.6952582e-03 0.0000000e+00 
-5.5462315e-04 -3.1519393e-03 0.0000000e+00 
-1.9469838e-04 -3.1494574e-03 0.0000000e+00 
1.6429569e-04 -3.1527822e-03 0.0000000e+00 
5.2400904e-04 -3.1619363e-03 0.0000000e+00 
-5.9110428e-04 -3.6469244e-03 0.0000000e+00 
-2.0966564e-04 -3.6451659e-03 0.0000000e+00 
1.7085447e-04 -3.6488878e-03 0.0000000e+00 
5.5208209e-04 -3.6581146e-03 0.0000000e+00 
-6.2626980e-04 -4.1697563e-03 0.0000000e+00 
-2.2454843e-04 -4.1687151e-03 0.0000000e+00 
1.7626723e-04 -4.1728327e-03 0.0000000e+00 
5.7777958e-04 -4.1821355e-03 0.0000000e+00 
-6.6014211e-04 -4.7188119e-03 0.0000000e+00 
-2.3935147e-04 -4.7184782e-03 0.0000000e+00 
1.8054729e-04 -4.7229864e-03 0.0000000e+00 
6.0113276e-04 -4.7323649e-03 0.0000000e+00 
-6.9273982e-04 -5.2924910e-03 0.0000000e+00 
-2.5407519e-04 -5.2928520e-03 0.0000000e+00 
1.8371220e-04 -5.2977430e-03 0.0000000e+00 
6.2217717e-04 -5.3071938e-03 0.0000000e+00 
-7.2407761e-04 -5.8892171e-03 0.0000000e+00 
-2.6871594e-04 -5.8902574e-03 0.0000000e+00 
1.8578351e-04 -5.8955206e-03 0.0000000e+00 
6.4095215e-04 -5.9050377e-03 0.0000000e+00 
-7.5416585e-04 -6.5074377e-03 0.0000000e+00 
-2.8326663e-04 -6.5091391e-03 0.0000000e+00 
1.8678624e-04 -6.5147610e-03 0.0000000e+00 
6.5750050e-04 -6.5243355e-03 0.0000000e+00 
-7.8301240e-04 -7.1456227e-03 0.0000000e+00 
-2.9771680e-04 -7.1479650e-03 0.0000000e+00 
1.8674858e-04 -7.1539302e-03 0.0000000e+00 
6.7186818e-04 -7.1635515e-03 0.0000000e+00 
-8.1062161e-04 -7.8022663e-03 0.0000000e+00 
-3.1205310e-04 -7.8052272e-03 0.0000000e+00 
1.8570153e-04 -7.8115180e-03 0.0000000e+00 
6.8410382e-04 -7.8211727e-03 0.0000000e+00 
-8.3699463e-04 -8.4758848e-03 0.0000000e+00 
-3.2625957e-04 -8.4794404e-03 0.0000000e+00 
1.8367861e-04 -8.4860376e-03 0.0000000e+00 
6.9425828e-04 -8.4957111e-03 0.0000000e+00 
-8.6213090e-04 -9.1650185e-03 0.0000000e+00 
-3.4031800e-04 -9.1691430e-03 0.0000000e+00 
1.8071560e-04 -9.1760255e-03 0.0000000e+00 
7.0238480e-04 -9.1857013e-03 0.0000000e+00 
-8.8602835e-04 -9.8682296e-03 0.0000000e+00 
-3.5420829e-04 -9.8728963e-03 0.0000000e+00 
1.7685016e-04 -9.8800419e-03 0.0000000e+00 
7.0853881e-04 -9.8897024e-03 0.0000000e+00 
-9.0868247e-04 -1.0584105e-02 0.0000000e+00 
-3.6790890e-04 -1.0589285e-02 0.0000000e+00 
1.7212170e-04 -1.0596671e-02 0.0000000e+00 
7.1277715e-04 -1.0606297e-02 0.0000000e+00 
-9.3008926e-04 -1.1311253e-02 0.0000000e+00 
-3.8139675e-04 -1.1316919e-02 0.0000000e+00 
1.6657093e-04 -1.1324519e-02 0.0000000e+00 
7.1515854e-04 -1.1334092e-02 0.0000000e+00 
-9.5024166e-04 -1.2048309e-02 0.0000000e+00 
-3.9464784e-04 -1.2054429e-02 0.0000000e+00 
1.6023970e-04 -1.2062220e-02 0.0000000e+00 
7.1574228e-04 -1.2071717e-02 0.0000000e+00 
-9.6913259e-04 -1.2793926e-02 0.0000000e+00 
-4.0763703e-04 -1.2800471e-02 0.0000000e+00 
1.5317063e-04 -1.2808427e-02 0.0000000e+00 
7.1458873e-04 -1.2817829e-02 0.0000000e+00 
-9.8675357e-04 -1.3546786e-02 0.0000000e+00 
-4.2033869e-04 -1.3553725e-02 0.0000000e+00 
1.4540705e-04 -1.3561819e-02 0.0000000e+00 
7.1175856e-04 -1.3571104e-02 0.0000000e+00 
-1.0030965e-03 -1.4305590e-02 0.0000000e+00 
-4.3272658e-04 -1.4312892e-02 0.0000000e+00 
1.3699263e-04 -1.4321098e-02 0.0000000e+00 
7.0731312e-04 -1.4330245e-02 0.0000000e+00 
-1.0181522e-03 -1.5069065e-02 0.0000000e+00 
-4.4477446e-04 -1.5076698e-02 0.0000000e+00 
1.2797128e-04 -1.5084991e-02 0.0000000e+00 
7.0131363e-04 -1.5093976e-02 0.0000000e+00 
-1.0319122e-03 -1.5835959e-02 0.0000000e+00 
-4.5645611e-04 -1.5843893e-02 0.0000000e+00 
1.1838683e-04 -1.5852245e-02 0.0000000e+00 
6.9382172e-04 -1.5861049e-02 0.0000000e+00 
-1.0443684e-03 -1.6605044e-02 0.0000000e+00 
-4.6774532e-04 -1.6613249e-02 0.0000000e+00 
1.0828303e-04 -1.6621634e-02 0.0000000e+00 
6.8489872e-04 -1.6630234e-02 0.0000000e+00 
-1.0555123e-03 -1.7375116e-02 0.0000000e+00 
-4.7861644e-04 -1.7383561e-02 0.0000000e+00 
9.7703240e-05 -1.7391954e-02 0.0000000e+00 
6.7460537e-04 -1.7400329e-02 0.0000000e+00 
-1.0653366e-03 -1.8144994e-02 0.0000000e+00 
-4.8904418e-04 -1.8153649e-02 0.0000000e+00 
8.6690201e-05 -1.8162025e-02 0.0000000e+00 
6.6300211e-04 -1.8170154e-02 0.0000000e+00 
-1.0738344e-03 -1.8913520e-02 0.0000000e+00 
-4.9900382e-04 -1.8922356e-02 0.0000000e+00 
7.5285906e-05 -1.8930689e-02 0.0000000e+00 
6.5014828e-04 -1.8938553e-02 0.0000000e+00 
-1.0809977e-03 -1.9679558e-02 0.0000000e+00 
-5.0847151e-04 -1.9688546e-02 0.0000000e+00 
6.3531492e-05 -1.9696814e-02 0.0000000e+00 
6.3610187e-04 -1.9704392e-02 0.0000000e+00 
-1.0868211e-03 -2.0441996e-02 0.0000000e+00 
-5.1742429e-04 -2.0451109e-02 0.0000000e+00 
5.1467161e-05 -2.0459287e-02 0.0000000e+00 
6.2092039e-04 -2.0466562e-02 0.0000000e+00 
-1.0913011e-03 -2.1199745e-02 0.0000000e+00 
-5.2584050e-04 -2.1208955e-02 0.0000000e+00 
3.9132011e-05 -2.1217022e-02 0.0000000e+00 
6.0466064e-04 -2.1223974e-02 0.0000000e+00 
-1.0944341e-03 -2.1951737e-02 0.0000000e+00 
-5.3370011e-04 -2.1961019e-02 0.0000000e+00 
2.6564069e-05 -2.1968953e-02 0.0000000e+00 
5.8737796e-04 -2.1975567e-02 0.0000000e+00 
-1.0962213e-03 -2.2696932e-02 0.0000000e+00 
-5.4098416e-04 -2.2706260e-02 0.0000000e+00 
1.3799868e-05 -2.2714040e-02 0.0000000e+00 
5.6912740e-04 -2.2720301e-02 0.0000000e+00 
-1.0966620e-03 -2.3434310e-02 0.0000000e+00 
-5.4767548e-04 -2.3443660e-02 0.0000000e+00 
8.7459187e-07 -2.3451268e-02 0.0000000e+00 
5.4996145e-04 -2.3457159e-02 0.0000000e+00 
-1.0957581e-03 -2.4162875e-02 0.0000000e+00 
-5.5375800e-04 -2.4172225e-02 0.0000000e+00 
-1.2178304e-05 -2.4179643e-02 0.0000000e+00 
5.2993132e-04 -2.4185152e-02 0.0000000e+00 
-1.0935123e-03 -2.4881657e-02 0.0000000e+00 
-5.5921741e-04 -2.4890985e-02 0.0000000e+00 
-2.5326873e-05 -2.4898195e-02 0.0000000e+00 
5.0908622e-04 -2.4903310e-02 0.0000000e+00 
-1.0899299e-03 -2.5589705e-02 0.0000000e+00 
-5.6404091e-04 -2.5598992e-02 0.0000000e+00 
-3.8540931e-05 -2.5605979e-02 0.0000000e+00 
4.8747405e-04 -2.5610690e-02 0.0000000e+00 
-1.0850170e-03 -2.6286096e-02 0.0000000e+00 
-5.6821765e-04 -2.6295322e-02 0.0000000e+00 
-5.1791973e-05 -2.6302072e-02 0.0000000e+00 
4.6514058e-04 -2.6306368e-02 0.0000000e+00 
-1.0787825e-03 -2.6969926e-02 0.0000000e+00 
-5.7173867e-04 -2.6979074e-02 0.0000000e+00 
-6.5053410e-05 -2.6985575e-02 0.0000000e+00 
4.4213026e-04 -2.6989447e-02 0.0000000e+00 
-1.0712372e-03 -2.7640317e-02 0.0000000e+00 
-5.7459663e-04 -2.7649371e-02 0.0000000e+00 
-7.8300300e-05 -2.7655611e-02 0.0000000e+00 
4.1848571e-04 -2.7659053e-02 0.0000000e+00 
-1.0623929e-03 -2.8296414e-02 0.0000000e+00 
-5.7678634e-04 -2.8305360e-02 0.0000000e+00 
-9.1509640e-05 -2.8311328e-02 0.0000000e+00 
3.9424737e-04 -2.8314335e-02 0.0000000e+00 
-1.0522646e-03 -2.8937385e-02 0.0000000e+00 
-5.7830440e-04 -2.8946209e-02 0.0000000e+00 
-1.0466044e-04 -2.8951898e-02 0.0000000e+00 
3.6945425e-04 -2.8954467e-02 0.0000000e+00 
-1.0408681e-03 -2.9562422e-02 0.0000000e+00 
-5.7914956e-04 -2.9571113e-02 0.0000000e+00 
-1.1773353e-04 -2.9576515e-02 0.0000000e+00 
3.4414301e-04 -2.9578643e-02 0.0000000e+00 
-1.0282226e-03 -3.0170742e-02 0.0000000e+00 
-5.7932237e-04 -3.0179290e-02 0.0000000e+00 
-1.3071176e-04 -3.0184400e-02 0.0000000e+00 
3.1834882e-04 -3.0186086e-02 0.0000000e+00 
-1.0143487e-03 -3.0761583e-02 0.0000000e+00 
-5.7882517e-04 -3.0769979e-02 0.0000000e+00 
-1.4358005e-04 -3.0774793e-02 0.0000000e+00 
2.9210445e-04 -3.0776038e-02 0.0000000e+00 
-9.9926564e-04 -3.1334209e-02 0.0000000e+00 
-5.7766243e-04 -3.1342446e-02 0.0000000e+00 
-1.5632526e-04 -3.1346961e-02 0.0000000e+00 
2.6543980e-04 -3.1347767e-02 0.0000000e+00 
-9.8299863e-04 -3.1887905e-02 0.0000000e+00 
-5.7584048e-04 -3.1895977e-02 0.0000000e+00 
-1.6893615e-04 -3.1900193e-02 0.0000000e+00 
2.3838402e-04 -3.1900563e-02 0.0000000e+00 
-9.6557488e-04 -3.2421979e-02 0.0000000e+00 
-5.7336809e-04 -3.2429883e-02 0.0000000e+00 
-1.8140335e-04 -3.2433800e-02 0.0000000e+00 
2.1096494e-04 -3.2433740e-02 0.0000000e+00 
-9.4702290e-04 -3.2935769e-02 0.0000000e+00 
-5.7025668e-04 -3.2943499e-02 0.0000000e+00 
-1.9371912e-04 -3.2947119e-02 0.0000000e+00 
1.8320838e-04 -3.2946636e-02 0.0000000e+00 
-9.2737837e-04 -3.3428631e-02 0.0000000e+00 
-5.6651932e-04 -3.3436188e-02 0.0000000e+00 
-2.0587785e-04 -3.3439514e-02 0.0000000e+00 
1.5514030e-04 -3.3438616e-02 0.0000000e+00 
-9.0667408e-04 -3.3899953e-02 0.0000000e+00 
-5.6217164e-04 -3.3907336e-02 0.0000000e+00 
-2.1787563e-04 -3.3910373e-02 0.0000000e+00 
1.2678300e-04 -3.3909071e-02 0.0000000e+00 
-8.8494628e-04 -3.4349144e-02 0.0000000e+00 
-5.5723056e-04 -3.4356355e-02 0.0000000e+00 
-2.2971065e-04 -3.4359110e-02 0.0000000e+00 
9.8157508e-05 -3.4357414e-02 0.0000000e+00 
-8.6223265e-04 -3.4775643e-02 0.0000000e+00 
-5.5171504e-04 -3.4782683e-02 0.0000000e+00 
-2.4138276e-04 -3.4785163e-02 0.0000000e+00 
6.9282766e-05 -3.4783086e-02 0.0000000e+00 
-8.3857344e-04 -3.5178909e-02 0.0000000e+00 
-5.4564622e-04 -3.5185783e-02 0.0000000e+00 
-2.5289356e-04 -3.5187997e-02 0.0000000e+00 
4.0176722e-05 -3.5185554e-02 0.0000000e+00 
-8.1401163e-04 -3.5558430e-02 0.0000000e+00 
-5.3904670e-04 -3.5565144e-02 0.0000000e+00 
-2.6424615e-04 -3.5567102e-02 0.0000000e+00 
1.0856086e-05 -3.5564307e-02 0.0000000e+00 
-7.8859144e-04 -3.5913722e-02 0.0000000e+00 
-5.3194128e-04 -3.5920280e-02 0.0000000e+00 
-2.7544522e-04 -3.5921995e-02 0.0000000e+00 
-1.8664097e-05 -3.5918866e-02 0.0000000e+00 
-7.6235981e-04 -3.6244323e-02 0.0000000e+00 
-5.2435628e-04 -3.6250735e-02 0.0000000e+00 
-2.8649701e-04 -3.6252219e-02 0.0000000e+00 
-4.8369740e-05 -3.6248774e-02 0.0000000e+00 
-7.3536569e-04 -3.6549805e-02 0.0000000e+00 
-5.1631928e-04 -3.6556078e-02 0.0000000e+00 
-2.9740942e-04 -3.6557345e-02 0.0000000e+00 
-7.8248457e-05 -3.6553603e-02 0.0000000e+00 
-7.0765478e-04 -3.6829760e-02 0.0000000e+00 
-5.0785976e-04 -3.6835905e-02 0.0000000e+00 
-3.0819162e-04 -3.6836969e-02 0.0000000e+00 
-1.0829042e-04 -3.6832951e-02 0.0000000e+00 
-6.7928003e-04 -3.7083810e-02 0.0000000e+00 
-4.9900829e-04 -3.7089837e-02 0.0000000e+00 
-3.1885407e-04 -3.7090715e-02 0.0000000e+00 
-1.3848530e-04 -3.7086442e-02 0.0000000e+00 
-6.5029471e-04 -3.7311603e-02 0.0000000e+00 
-4.8979766e-04 -3.7317524e-02 0.0000000e+00 
-3.2940829e-04 -3.7318233e-02 0.0000000e+00 
-1.6882319e-04 -3.7313727e-02 0.0000000e+00 
-6.2075417e-04 -3.7512818e-02 0.0000000e+00 
-4.8026253e-04 -3.7518645e-02 0.0000000e+00 
-3.3986652e-04 -3.7519203e-02 0.0000000e+00 
-1.9929484e-04 -3.7514489e-02 0.0000000e+00 
-5.9072125e-04 -3.7687163e-02 0.0000000e+00 
-4.7043865e-04 -3.7692908e-02 0.0000000e+00 
-3.5024226e-04 -3.7693334e-02 0.0000000e+00 
-2.2988970e-04 -3.7688436e-02 0.0000000e+00 
-5.6025375e-04 -3.7834378e-02 0.0000000e+00 
-4.6036346e-04 -3.7840055e-02 0.0000000e+00 
-3.6054985e-04 -3.7840368e-02 0.0000000e+00 
-2.6060011e-04 -3.7835312e-02 0.0000000e+00 
-5.2941175e-04 -3.7954231e-02 0.0000000e+00 
-4.5007465e-04 -3.7959855e-02 0.0000000e+00 
-3.7080475e-04 -3.7960075e-02 0.0000000e+00 
-2.9141895e-04 -3.7954887e-02 0.0000000e+00 
-4.9825631e-04 -3.8046523e-02 0.0000000e+00 
-4.3961065e-04 -3.8052108e-02 0.0000000e+00 
-3.8102299e-04 -3.8052256e-02 0.0000000e+00 
-3.2233992e-04 -3.8046962e-02 0.0000000e+00 
-4.6684889e-04 -3.8111082e-02 0.0000000e+00 
-4.2901076e-04 -3.8116643e-02 0.0000000e+00 
-3.9122131e-04 -3.8116741e-02 0.0000000e+00 
-3.5335707e-04 -3.8111368e-02 0.0000000e+00 
-4.3525208e-04 -3.8147768e-02 0.0000000e+00 
-4.1831492e-04 -3.8153321e-02 0.0000000e+00 
-4.0141694e-04 -3.8153389e-02 0.0000000e+00 
-3.8446492e-04 -3.8147966e-02 0.0000000e+00 
-4.0352939e-04 -3.8156471e-02 0.0000000e+00 
-4.0756328e-04 -3.8162032e-02 0.0000000e+00 
-4.1162734e-04 -3.8162093e-02 0.0000000e+00 
-4.1565834e-04 -3.8156647e-02 0.0000000e+00 
-3.7174378e-04 -3.8137112e-02 0.0000000e+00 
-3.9679670e-04 -3.8142698e-02 0.0000000e+00 
-4.2187058e-04 -3.8142773e-02 0.0000000e+00 
-4.4693238e-04 -3.8137332e-02 0.0000000e+00 
-3.3995908e-04 -3.8089643e-02 0.0000000e+00 
-3.8605612e-04 -3.8095268e-02 0.0000000e+00 
-4.3216479e-04 -3.8095381e-02 0.0000000e+00 
-4.7828227e-04 -3.8089973e-02 0.0000000e+00 
-3.0823940e-04 -3.8014045e-02 0.0000000e+00 
-3.7538260e-04 -3.8019727e-02 0.0000000e+00 
-4.4252815e-04 -3.8019898e-02 0.0000000e+00 
-5.0970343e-04 -3.8014552e-02 0.0000000e+00 
-2.7664843e-04 -3.7910330e-02 0.0000000e+00 
-3.6481705e-04 -3.7916086e-02 0.0000000e+00 
-4.5297886e-04 -3.7916338e-02 0.0000000e+00 
-5.4119110e-04 -3.7911081e-02 0.0000000e+00 
-2.4524953e-04 -3.7778544e-02 0.0000000e+00 
-3.5440016e-04 -3.7784387e-02 0.0000000e+00 
-4.6353487e-04 -3.7784742e-02 0.0000000e+00 
-5.7274083e-04 -3.7779602e-02 0.0000000e+00 
-2.1410632e-04 -3.7618758e-02 0.0000000e+00 
-3.4417167e-04 -3.7624706e-02 0.0000000e+00 
-4.7421423e-04 -3.7625185e-02 0.0000000e+00 
-6.0434783e-04 -3.7620190e-02 0.0000000e+00 
-1.8327591e-04 -3.7431075e-02 0.0000000e+00 
-3.3417122e-04 -3.7437142e-02 0.0000000e+00 
-4.8503431e-04 -3.7437767e-02 0.0000000e+00 
-6.3600914e-04 -3.7432943e-02 0.0000000e+00 
-1.5282165e-04 -3.7215624e-02 0.0000000e+00 
-3.2443684e-04 -3.7221828e-02 0.0000000e+00 
-4.9601214e-04 -3.7222619e-02 0.0000000e+00 
-6.6771936e-04 -3.7217993e-02 0.0000000e+00 
-1.2280064e-04 -3.6972569e-02 0.0000000e+00 
-3.1500714e-04 -3.6978921e-02 0.0000000e+00 
-5.0716392e-04 -3.6979899e-02 0.0000000e+00 
-6.9947263e-04 -3.6975497e-02 0.0000000e+00 
-9.3272875e-05 -3.6702095e-02 0.0000000e+00 
-3.0591985e-04 -3.6708612e-02 0.0000000e+00 
-5.1850493e-04 -3.6709796e-02 0.0000000e+00 
-7.3126192e-04 -3.6705644e-02 0.0000000e+00 
-6.4303023e-05 -3.6404429e-02 0.0000000e+00 
-2.9721185e-04 -3.6411122e-02 0.0000000e+00 
-5.3004974e-04 -3.6412531e-02 0.0000000e+00 
-7.6307834e-04 -3.6408653e-02 0.0000000e+00 
-3.5946670e-05 -3.6079819e-02 0.0000000e+00 
-2.8891930e-04 -3.6086702e-02 0.0000000e+00 
-5.4181234e-04 -3.6088354e-02 0.0000000e+00 
-7.9491435e-04 -3.6084774e-02 0.0000000e+00 
-8.2575463e-06 -3.5728549e-02 0.0000000e+00 
-2.8107611e-04 -3.5735631e-02 0.0000000e+00 
-5.5380605e-04 -3.5737543e-02 0.0000000e+00 
-8.2676266e-04 -3.5734283e-02 0.0000000e+00 
1.8711510e-05 -3.5350919e-02 0.0000000e+00 
-2.7371439e-04 -3.5358214e-02 0.0000000e+00 
-5.6604311e-04 -3.5360403e-02 0.0000000e+00 
-8.5861536e-04 -3.5357486e-02 0.0000000e+00 
4.4911417e-05 -3.4947267e-02 0.0000000e+00 
-2.6686381e-04 -3.4954786e-02 0.0000000e+00 
-5.7853470e-04 -3.4957267e-02 0.0000000e+00 
-8.9046492e-04 -3.4954711e-02 0.0000000e+00 
7.0296439e-05 -3.4517954e-02 0.0000000e+00 
-2.6055365e-04 -3.4525704e-02 0.0000000e+00 
-5.9129166e-04 -3.4528490e-02 0.0000000e+00 
-9.2230407e-04 -3.4526315e-02 0.0000000e+00 
9.4822193e-05 -3.4063356e-02 0.0000000e+00 
-2.5481049e-04 -3.4071347e-02 0.0000000e+00 
-6.0432368e-04 -3.4074453e-02 0.0000000e+00 
-9.5412536e-04 -3.4072675e-02 0.0000000e+00 
1.1844756e-04 -3.3583881e-02 0.0000000e+00 
-2.4965914e-04 -3.3592119e-02 0.0000000e+00 
-6.1763925e-04 -3.3595555e-02 0.0000000e+00 
-9.8592132e-04 -3.3594192e-02 0.0000000e+00 
1.4113344e-04 -3.3079949e-02 0.0000000e+00 
-2.4512250e-04 -3.3088443e-02 0.0000000e+00 
-6.3124615e-04 -3.3092221e-02 0.0000000e+00 
-1.0176837e-03 -3.3091286e-02 0.0000000e+00 
1.6284705e-04 -3.2552008e-02 0.0000000e+00 
-2.4122155e-04 -3.2560763e-02 0.0000000e+00 
-6.4515050e-04 -3.2564892e-02 0.0000000e+00 
-1.0494056e-03 -3.2564398e-02 0.0000000e+00 
1.8355295e-04 -3.2000516e-02 0.0000000e+00 
-2.3797459e-04 -3.2009538e-02 0.0000000e+00 
-6.5935728e-04 -3.2014027e-02 0.0000000e+00 
-1.0810777e-03 -3.2013988e-02 0.0000000e+00 
2.0322407e-04 -3.1425959e-02 0.0000000e+00 
-2.3539915e-04 -3.1435250e-02 0.0000000e+00 
-6.7386994e-04 -3.1440105e-02 0.0000000e+00 
-1.1126892e-03 -3.1440531e-02 0.0000000e+00 
2.2183074e-04 -3.0828830e-02 0.0000000e+00 
-2.3351049e-04 -3.0838395e-02 0.0000000e+00 
-6.8869033e-04 -3.0843624e-02 0.0000000e+00 
-1.1442288e-03 -3.0844525e-02 0.0000000e+00 
2.3934252e-04 -3.0209655e-02 0.0000000e+00 
-2.3232220e-04 -3.0219492e-02 0.0000000e+00 
-7.0381913e-04 -3.0225099e-02 0.0000000e+00 
-1.1756834e-03 -3.0226482e-02 0.0000000e+00 
2.5573713e-04 -2.9568962e-02 0.0000000e+00 
-2.3184628e-04 -2.9579075e-02 0.0000000e+00 
-7.1925603e-04 -2.9585062e-02 0.0000000e+00 
-1.2070408e-03 -2.9586935e-02 0.0000000e+00 
2.7099564e-04 -2.8907307e-02 0.0000000e+00 
-2.3209180e-04 -2.8917693e-02 0.0000000e+00 
-7.3499961e-04 -2.8924063e-02 0.0000000e+00 
-1.2382894e-03 -2.8926429e-02 0.0000000e+00 
2.8510088e-04 -2.8225247e-02 0.0000000e+00 
-2.3306551e-04 -2.8235907e-02 0.0000000e+00 
-7.5104725e-04 -2.8242662e-02 0.0000000e+00 
-1.2694168e-03 -2.8245525e-02 0.0000000e+00 
2.9804071e-04 -2.7523364e-02 0.0000000e+00 
-2.3477225e-04 -2.7534292e-02 0.0000000e+00 
-7.6739524e-04 -2.7541431e-02 0.0000000e+00 
-1.3004109e-03 -2.7544793e-02 0.0000000e+00 
3.0980410e-04 -2.6802236e-02 0.0000000e+00 
-2.3721477e-04 -2.6813432e-02 0.0000000e+00 
-7.8403869e-04 -2.6820955e-02 0.0000000e+00 
-1.3312592e-03 -2.6824817e-02 0.0000000e+00 
3.2038424e-04 -2.6062462e-02 0.0000000e+00 
-2.4039268e-04 -2.6073923e-02 0.0000000e+00 
-8.0097173e-04 -2.6081827e-02 0.0000000e+00 
-1.3619498e-03 -2.6086187e-02 0.0000000e+00 
3.2977899e-04 -2.5304649e-02 0.0000000e+00 
-2.4430519e-04 -2.5316367e-02 0.0000000e+00 
-8.1818806e-04 -2.5324648e-02 0.0000000e+00 
-1.3924715e-03 -2.5329504e-02 0.0000000e+00 
3.3798758e-04 -2.4529398e-02 0.0000000e+00 
-2.4894863e-04 -2.4541370e-02 0.0000000e+00 
-8.3568054e-04 -2.4550023e-02 0.0000000e+00 
-1.4228136e-03 -2.4555372e-02 0.0000000e+00 
3.4501279e-04 -2.3737325e-02 0.0000000e+00 
-2.5431766e-04 -2.3749544e-02 0.0000000e+00 
-8.5344108e-04 -2.3758564e-02 0.0000000e+00 
-1.4529654e-03 -2.3764400e-02 0.0000000e+00 
3.5085934e-04 -2.2929041e-02 0.0000000e+00 
-2.6040527e-04 -2.2941502e-02 0.0000000e+00 
-8.7146113e-04 -2.2950882e-02 0.0000000e+00 
-1.4829162e-03 -2.2957200e-02 0.0000000e+00 
3.5553654e-04 -2.2105166e-02 0.0000000e+00 
-2.6720280e-04 -2.2117858e-02 0.0000000e+00 