# vtk DataFile Version 4.0
vtk output
ASCII
DATASET UNSTRUCTURED_GRID
POINTS 604 float
5.5000000e+00 5.9700000e+00 0.0000000e+00 
5.5000000e+00 5.9900000e+00 0.0000000e+00 
5.5266667e+00 5.9700000e+00 0.0000000e+00 
5.5266667e+00 5.9900000e+00 0.0000000e+00 
5.5000000e+00 6.0100000e+00 0.0000000e+00 
5.5266667e+00 6.0100000e+00 0.0000000e+00 
5.5533333e+00 5.9700000e+00 0.0000000e+00 
5.5533333e+00 5.9900000e+00 0.0000000e+00 
5.5000000e+00 6.0300000e+00 0.0000000e+00 
5.5266667e+00 6.0300000e+00 0.0000000e+00 
5.5533333e+00 6.0100000e+00 0.0000000e+00 
5.5800000e+00 5.9700000e+00 0.0000000e+00 
5.5533333e+00 6.0300000e+00 0.0000000e+00 
5.5800000e+00 5.9900000e+00 0.0000000e+00 
5.5800000e+00 6.0100000e+00 0.0000000e+00 
5.5800000e+00 6.0300000e+00 0.0000000e+00 
5.6066667e+00 5.9700000e+00 0.0000000e+00 
5.6066667e+00 5.9900000e+00 0.0000000e+00 
5.6066667e+00 6.0100000e+00 0.0000000e+00 
5.6066667e+00 6.0300000e+00 0.0000000e+00 
5.6333333e+00 5.9700000e+00 0.0000000e+00 
5.6333333e+00 5.9900000e+00 0.0000000e+00 
5.6333333e+00 6.0100000e+00 0.0000000e+00 
5.6333333e+00 6.0300000e+00 0.0000000e+00 
5.6600000e+00 5.9700000e+00 0.0000000e+00 
5.6600000e+00 5.9900000e+00 0.0000000e+00 
5.6600000e+00 6.0100000e+00 0.0000000e+00 
5.6600000e+00 6.0300000e+00 0.0000000e+00 
5.6866667e+00 5.9700000e+00 0.0000000e+00 
5.6866667e+00 5.9900000e+00 0.0000000e+00 
5.6866667e+00 6.0100000e+00 0.0000000e+00 
5.6866667e+00 6.0300000e+00 0.0000000e+00 
5.7133333e+00 5.9700000e+00 0.0000000e+00 
5.7133333e+00 5.9900000e+00 0.0000000e+00 
5.7133333e+00 6.0100000e+00 0.0000000e+00 
5.7133333e+00 6.0300000e+00 0.0000000e+00 
5.7400000e+00 5.9700000e+00 0.0000000e+00 
5.7400000e+00 5.9900000e+00 0.0000000e+00 
5.7400000e+00 6.0100000e+00 0.0000000e+00 
5.7400000e+00 6.0300000e+00 0.0000000e+00 
5.7666667e+00 5.9700000e+00 0.0000000e+00 
5.7666667e+00 5.9900000e+00 0.0000000e+00 
5.7666667e+00 6.0100000e+00 0.0000000e+00 
5.7666667e+00 6.0300000e+00 0.0000000e+00 
5.7933333e+00 5.9700000e+00 0.0000000e+00 
5.7933333e+00 5.9900000e+00 0.0000000e+00 
5.7933333e+00 6.0100000e+00 0.0000000e+00 
5.7933333e+00 6.0300000e+00 0.0000000e+00 
5.8200000e+00 5.9700000e+00 0.0000000e+00 
5.8200000e+00 5.9900000e+00 0.0000000e+00 
5.8200000e+00 6.0100000e+00 0.0000000e+00 
5.8200000e+00 6.0300000e+00 0.0000000e+00 
5.8466667e+00 5.9700000e+00 0.0000000e+00 
5.8466667e+00 5.9900000e+00 0.0000000e+00 
5.8466667e+00 6.0100000e+00 0.0000000e+00 
5.8466667e+00 6.0300000e+00 0.0000000e+00 
5.8733333e+00 5.9700000e+00 0.0000000e+00 
5.8733333e+00 5.9900000e+00 0.0000000e+00 
5.8733333e+00 6.0100000e+00 0.0000000e+00 
5.8733333e+00 6.0300000e+00 0.0000000e+00 
5.9000000e+00 5.9700000e+00 0.0000000e+00 
5.9000000e+00 5.9900000e+00 0.0000000e+00 
5.9000000e+00 6.0100000e+00 0.0000000e+00 
5.9000000e+00 6.0300000e+00 0.0000000e+00 
5.9266667e+00 5.9700000e+00 0.0000000e+00 
5.9266667e+00 5.9900000e+00 0.0000000e+00 
5.9266667e+00 6.0100000e+00 0.0000000e+00 
5.9266667e+00 6.0300000e+00 0.0000000e+00 
5.9533333e+00 5.9700000e+00 0.0000000e+00 
5.9533333e+00 5.9900000e+00 0.0000000e+00 
5.9533333e+00 6.0100000e+00 0.0000000e+00 
5.9533333e+00 6.0300000e+00 0.0000000e+00 
5.9800000e+00 5.9700000e+00 0.0000000e+00 
5.9800000e+00 5.9900000e+00 0.0000000e+00 
5.9800000e+00 6.0100000e+00 0.0000000e+00 
5.9800000e+00 6.0300000e+00 0.0000000e+00 
6.0066667e+00 5.9700000e+00 0.0000000e+00 
6.0066667e+00 5.9900000e+00 0.0000000e+00 
6.0066667e+00 6.0100000e+00 0.0000000e+00 
6.0066667e+00 6.0300000e+00 0.0000000e+00 
6.0333333e+00 5.9700000e+00 0.0000000e+00 
6.0333333e+00 5.9900000e+00 0.0000000e+00 
6.0333333e+00 6.0100000e+00 0.0000000e+00 
6.0333333e+00 6.0300000e+00 0.0000000e+00 
6.0600000e+00 5.9700000e+00 0.0000000e+00 
6.0600000e+00 5.9900000e+00 0.0000000e+00 
6.0600000e+00 6.0100000e+00 0.0000000e+00 
6.0600000e+00 6.0300000e+00 0.0000000e+00 
6.0866667e+00 5.9700000e+00 0.0000000e+00 
6.0866667e+00 5.9900000e+00 0.0000000e+00 
6.0866667e+00 6.0100000e+00 0.0000000e+00 
6.0866667e+00 6.0300000e+00 0.0000000e+00 
6.1133333e+00 5.9700000e+00 0.0000000e+00 
6.1133333e+00 5.9900000e+00 0.0000000e+00 
6.1133333e+00 6.0100000e+00 0.0000000e+00 
6.1133333e+00 6.0300000e+00 0.0000000e+00 
6.1400000e+00 5.9700000e+00 0.0000000e+00 
6.1400000e+00 5.9900000e+00 0.0000000e+00 
6.1400000e+00 6.0100000e+00 0.0000000e+00 
6.1400000e+00 6.0300000e+00 0.0000000e+00 
6.1666667e+00 5.9700000e+00 0.0000000e+00 
6.1666667e+00 5.9900000e+00 0.0000000e+00 
6.1666667e+00 6.0100000e+00 0.0000000e+00 
6.1666667e+00 6.0300000e+00 0.0000000e+00 
6.1933333e+00 5.9700000e+00 0.0000000e+00 
6.1933333e+00 5.9900000e+00 0.0000000e+00 
6.1933333e+00 6.0100000e+00 0.0000000e+00 
6.1933333e+00 6.0300000e+00 0.0000000e+00 
6.2200000e+00 5.9700000e+00 0.0000000e+00 
6.2200000e+00 5.9900000e+00 0.0000000e+00 
6.2200000e+00 6.0100000e+00 0.0000000e+00 
6.2200000e+00 6.0300000e+00 0.0000000e+00 
6.2466667e+00 5.9700000e+00 0.0000000e+00 
6.2466667e+00 5.9900000e+00 0.0000000e+00 
6.2466667e+00 6.0100000e+00 0.0000000e+00 
6.2466667e+00 6.0300000e+00 0.0000000e+00 
6.2733333e+00 5.9700000e+00 0.0000000e+00 
6.2733333e+00 5.9900000e+00 0.0000000e+00 
6.2733333e+00 6.0100000e+00 0.0000000e+00 
6.2733333e+00 6.0300000e+00 0.0000000e+00 
6.3000000e+00 5.9700000e+00 0.0000000e+00 
6.3000000e+00 5.9900000e+00 0.0000000e+00 
6.3000000e+00 6.0100000e+00 0.0000000e+00 
6.3000000e+00 6.0300000e+00 0.0000000e+00 
6.3266667e+00 5.9700000e+00 0.0000000e+00 
6.3266667e+00 5.9900000e+00 0.0000000e+00 
6.3266667e+00 6.0100000e+00 0.0000000e+00 
6.3266667e+00 6.0300000e+00 0.0000000e+00 
6.3533333e+00 5.9700000e+00 0.0000000e+00 
6.3533333e+00 5.9900000e+00 0.0000000e+00 
6.3533333e+00 6.0100000e+00 0.0000000e+00 
6.3533333e+00 6.0300000e+00 0.0000000e+00 
6.3800000e+00 5.9700000e+00 0.0000000e+00 
6.3800000e+00 5.9900000e+00 0.0000000e+00 
6.3800000e+00 6.0100000e+00 0.0000000e+00 
6.3800000e+00 6.0300000e+00 0.0000000e+00 
6.4066667e+00 5.9700000e+00 0.0000000e+00 
6.4066667e+00 5.9900000e+00 0.0000000e+00 
6.4066667e+00 6.0100000e+00 0.0000000e+00 
6.4066667e+00 6.0300000e+00 0.0000000e+00 
6.4333333e+00 5.9700000e+00 0.0000000e+00 
6.4333333e+00 5.9900000e+00 0.0000000e+00 
6.4333333e+00 6.0100000e+00 0.0000000e+00 
6.4333333e+00 6.0300000e+00 0.0000000e+00 
6.4600000e+00 5.9700000e+00 0.0000000e+00 
6.4600000e+00 5.9900000e+00 0.0000000e+00 
6.4600000e+00 6.0100000e+00 0.0000000e+00 
6.4600000e+00 6.0300000e+00 0.0000000e+00 
6.4866667e+00 5.9700000e+00 0.0000000e+00 
6.4866667e+00 5.9900000e+00 0.0000000e+00 
6.4866667e+00 6.0100000e+00 0.0000000e+00 
6.4866667e+00 6.0300000e+00 0.0000000e+00 
6.5133333e+00 5.9700000e+00 0.0000000e+00 
6.5133333e+00 5.9900000e+00 0.0000000e+00 
6.5133333e+00 6.0100000e+00 0.0000000e+00 
6.5133333e+00 6.0300000e+00 0.0000000e+00 
6.5400000e+00 5.9700000e+00 0.0000000e+00 
6.5400000e+00 5.9900000e+00 0.0000000e+00 
6.5400000e+00 6.0100000e+00 0.0000000e+00 
6.5400000e+00 6.0300000e+00 0.0000000e+00 
6.5666667e+00 5.9700000e+00 0.0000000e+00 
6.5666667e+00 5.9900000e+00 0.0000000e+00 
6.5666667e+00 6.0100000e+00 0.0000000e+00 
6.5666667e+00 6.0300000e+00 0.0000000e+00 
6.5933333e+00 5.9700000e+00 0.0000000e+00 
6.5933333e+00 5.9900000e+00 0.0000000e+00 
6.5933333e+00 6.0100000e+00 0.0000000e+00 
6.5933333e+00 6.0300000e+00 0.0000000e+00 
6.6200000e+00 5.9700000e+00 0.0000000e+00 
6.6200000e+00 5.9900000e+00 0.0000000e+00 
6.6200000e+00 6.0100000e+00 0.0000000e+00 
6.6200000e+00 6.0300000e+00 0.0000000e+00 
6.6466667e+00 5.9700000e+00 0.0000000e+00 
6.6466667e+00 5.9900000e+00 0.0000000e+00 
6.6466667e+00 6.0100000e+00 0.0000000e+00 
6.6466667e+00 6.0300000e+00 0.0000000e+00 
6.6733333e+00 5.9700000e+00 0.0000000e+00 
6.6733333e+00 5.9900000e+00 0.0000000e+00 
6.6733333e+00 6.0100000e+00 0.0000000e+00 
6.6733333e+00 6.0300000e+00 0.0000000e+00 
6.7000000e+00 5.9700000e+00 0.0000000e+00 
6.7000000e+00 5.9900000e+00 0.0000000e+00 
6.7000000e+00 6.0100000e+00 0.0000000e+00 
6.7000000e+00 6.0300000e+00 0.0000000e+00 
6.7266667e+00 5.9700000e+00 0.0000000e+00 
6.7266667e+00 5.9900000e+00 0.0000000e+00 
6.7266667e+00 6.0100000e+00 0.0000000e+00 
6.7266667e+00 6.0300000e+00 0.0000000e+00 
6.7533333e+00 5.9700000e+00 0.0000000e+00 
6.7533333e+00 5.9900000e+00 0.0000000e+00 
6.7533333e+00 6.0100000e+00 0.0000000e+00 
6.7533333e+00 6.0300000e+00 0.0000000e+00 
6.7800000e+00 5.9700000e+00 0.0000000e+00 
6.7800000e+00 5.9900000e+00 0.0000000e+00 
6.7800000e+00 6.0100000e+00 0.0000000e+00 
6.7800000e+00 6.0300000e+00 0.0000000e+00 
6.8066667e+00 5.9700000e+00 0.0000000e+00 
6.8066667e+00 5.9900000e+00 0.0000000e+00 
6.8066667e+00 6.0100000e+00 0.0000000e+00 
6.8066667e+00 6.0300000e+00 0.0000000e+00 
6.8333333e+00 5.9700000e+00 0.0000000e+00 
6.8333333e+00 5.9900000e+00 0.0000000e+00 
6.8333333e+00 6.0100000e+00 0.0000000e+00 
6.8333333e+00 6.0300000e+00 0.0000000e+00 
6.8600000e+00 5.9700000e+00 0.0000000e+00 
6.8600000e+00 5.9900000e+00 0.0000000e+00 
6.8600000e+00 6.0100000e+00 0.0000000e+00 
6.8600000e+00 6.0300000e+00 0.0000000e+00 
6.8866667e+00 5.9700000e+00 0.0000000e+00 
6.8866667e+00 5.9900000e+00 0.0000000e+00 
6.8866667e+00 6.0100000e+00 0.0000000e+00 
6.8866667e+00 6.0300000e+00 0.0000000e+00 
6.9133333e+00 5.9700000e+00 0.0000000e+00 
6.9133333e+00 5.9900000e+00 0.0000000e+00 
6.9133333e+00 6.0100000e+00 0.0000000e+00 
6.9133333e+00 6.0300000e+00 0.0000000e+00 
6.9400000e+00 5.9700000e+00 0.0000000e+00 
6.9400000e+00 5.9900000e+00 0.0000000e+00 
6.9400000e+00 6.0100000e+00 0.0000000e+00 
6.9400000e+00 6.0300000e+00 0.0000000e+00 
6.9666667e+00 5.9700000e+00 0.0000000e+00 
6.9666667e+00 5.9900000e+00 0.0000000e+00 
6.9666667e+00 6.0100000e+00 0.0000000e+00 
6.9666667e+00 6.0300000e+00 0.0000000e+00 
6.9933333e+00 5.9700000e+00 0.0000000e+00 
6.9933333e+00 5.9900000e+00 0.0000000e+00 
6.9933333e+00 6.0100000e+00 0.0000000e+00 
6.9933333e+00 6.0300000e+00 0.0000000e+00 
7.0200000e+00 5.9700000e+00 0.0000000e+00 
7.0200000e+00 5.9900000e+00 0.0000000e+00 
[...]
POINT_DATA 604
FIELD FieldData 2
DISPLACEMENT 3 604  float
0.0000000e+00 0.0000000e+00 0.0000000e+00 
0.0000000e+00 0.0000000e+00 0.0000000e+00 
2.3946254e-07 1.7564659e-07 0.0000000e+00 
3.0708273e-08 1.5333483e-07 0.0000000e+00 
0.0000000e+00 0.0000000e+00 0.0000000e+00 
-1.5681093e-07 1.8748857e-07 0.0000000e+00 
4.4607685e-07 6.1488949e-07 0.0000000e+00 
4.8201105e-08 6.0903666e-07 0.0000000e+00 
0.0000000e+00 0.0000000e+00 0.0000000e+00 
-3.8993785e-07 2.8921223e-07 0.0000000e+00 
-3.3345323e-07 6.4975043e-07 0.0000000e+00 
6.0275120e-07 1.2887540e-06 0.0000000e+00 
-7.3488641e-07 7.3078032e-07 0.0000000e+00 
4.7693173e-08 1.2900656e-06 0.0000000e+00 
-4.8677955e-07 1.3279495e-06 0.0000000e+00 
-1.0406260e-06 1.4027863e-06 0.0000000e+00 
7.1269400e-07 2.1460664e-06 0.0000000e+00 
3.4012165e-08 2.1549317e-06 0.0000000e+00 
-6.2496068e-07 2.1926974e-06 0.0000000e+00 
-1.3030773e-06 2.2592788e-06 0.0000000e+00 
7.7868362e-07 3.1481333e-06 0.0000000e+00 
5.3208898e-09 3.1647895e-06 0.0000000e+00 
-7.4855862e-07 3.2026311e-06 0.0000000e+00 
-1.5212525e-06 3.2617012e-06 0.0000000e+00 
8.0086673e-07 4.2565702e-06 0.0000000e+00 
-3.8120920e-08 4.2808243e-06 0.0000000e+00 
-8.5794814e-07 4.3188088e-06 0.0000000e+00 
-1.6963231e-06 4.3703779e-06 0.0000000e+00 
7.8009839e-07 5.4326590e-06 0.0000000e+00 
-9.6252817e-08 5.4646749e-06 0.0000000e+00 
-9.5350419e-07 5.5029144e-06 0.0000000e+00 
-1.8287807e-06 5.5474122e-06 0.0000000e+00 
7.1652422e-07 6.6392617e-06 0.0000000e+00 
-1.6885987e-07 6.6786635e-06 0.0000000e+00 
-1.0354704e-06 6.7170871e-06 0.0000000e+00 
-1.9198009e-06 6.7543487e-06 0.0000000e+00 
6.1109799e-07 7.8383709e-06 0.0000000e+00 
-2.5589786e-07 7.8855073e-06 0.0000000e+00 
-1.1042618e-06 7.9243410e-06 0.0000000e+00 
-1.9698470e-06 7.9549698e-06 0.0000000e+00 
4.6415480e-07 8.9946159e-06 0.0000000e+00 
-3.5715361e-07 9.0489122e-06 0.0000000e+00 
-1.1601407e-06 9.0879976e-06 0.0000000e+00 
-1.9800402e-06 9.1116681e-06 0.0000000e+00 
2.7657454e-07 1.0070924e-05 0.0000000e+00 
-4.7250563e-07 1.0132819e-05 0.0000000e+00 
-1.2034763e-06 1.0172406e-05 0.0000000e+00 
-1.9509127e-06 1.0189828e-05 0.0000000e+00 
4.8853991e-08 1.1033415e-05 0.0000000e+00 
-6.0173234e-07 1.1102236e-05 0.0000000e+00 
-1.2345271e-06 1.1142115e-05 0.0000000e+00 
-1.8834629e-06 1.1152852e-05 0.0000000e+00 
-2.1817412e-07 1.1846164e-05 0.0000000e+00 
-7.4465702e-07 1.1922376e-05 0.0000000e+00 
-1.2536010e-06 1.1962799e-05 0.0000000e+00 
-1.7783261e-06 1.1967599e-05 0.0000000e+00 
-5.2393645e-07 1.2476658e-05 0.0000000e+00 
-9.0102872e-07 1.2559554e-05 0.0000000e+00 
-1.2609456e-06 1.2600251e-05 0.0000000e+00 
-1.6363143e-06 1.2598638e-05 0.0000000e+00 
-8.6768785e-07 1.2890199e-05 0.0000000e+00 
-1.0705913e-06 1.2980204e-05 0.0000000e+00 
-1.2567867e-06 1.3021507e-05 0.0000000e+00 
-1.4582315e-06 1.3014160e-05 0.0000000e+00 
-1.2485611e-06 1.3055062e-05 0.0000000e+00 
-1.2532672e-06 1.3151954e-05 0.0000000e+00 
-1.2415506e-06 1.3193837e-05 0.0000000e+00 
-1.2447287e-06 1.3180806e-05 0.0000000e+00 
-1.6657631e-06 1.2939885e-05 0.0000000e+00 
-1.4485775e-06 1.3043059e-05 0.0000000e+00 
-1.2152591e-06 1.3085178e-05 0.0000000e+00 
-9.9647570e-07 1.3066122e-05 0.0000000e+00 
-2.1186113e-06 1.2512250e-05 0.0000000e+00 
-1.6562244e-06 1.2622000e-05 0.0000000e+00 
-1.1781047e-06 1.2664526e-05 0.0000000e+00 
-7.1426234e-07 1.2639987e-05 0.0000000e+00 
-2.6061962e-06 1.1742602e-05 0.0000000e+00 
-1.8759703e-06 1.1858351e-05 0.0000000e+00 
-1.1303368e-06 1.1901114e-05 0.0000000e+00 
-3.9867180e-07 1.1870782e-05 0.0000000e+00 
-3.1278774e-06 1.0599986e-05 0.0000000e+00 
-2.1075224e-06 1.0722006e-05 0.0000000e+00 
-1.0721617e-06 1.0765147e-05 0.0000000e+00 
-5.0515533e-08 1.0729564e-05 0.0000000e+00 
-3.6827683e-06 9.0560651e-06 0.0000000e+00 
-2.3506279e-06 9.1838032e-06 0.0000000e+00 
-1.0038167e-06 9.2271486e-06 0.0000000e+00 
3.2960525e-07 9.1860039e-06 0.0000000e+00 
-4.2702169e-06 7.0812669e-06 0.0000000e+00 
-2.6049810e-06 7.2149509e-06 0.0000000e+00 
-9.2550534e-07 7.2586251e-06 0.0000000e+00 
7.4084400e-07 7.2124402e-06 0.0000000e+00 
-4.8892736e-06 4.6485090e-06 0.0000000e+00 
-2.8703237e-06 4.7876130e-06 0.0000000e+00 
-8.3748044e-07 4.8314633e-06 0.0000000e+00 
1.1825736e-06 4.7799580e-06 0.0000000e+00 
-5.5392437e-06 1.7296805e-06 0.0000000e+00 
-3.1463490e-06 1.8743941e-06 0.0000000e+00 
-7.3997266e-07 1.9185238e-06 0.0000000e+00 
1.6539287e-06 1.8622145e-06 0.0000000e+00 
-6.2192326e-06 -1.7009924e-06 0.0000000e+00 
-3.4327836e-06 -1.5511771e-06 0.0000000e+00 
-6.3325098e-07 -1.5069000e-06 0.0000000e+00 
2.1541548e-06 -1.5682764e-06 0.0000000e+00 
-6.9284487e-06 -5.6702367e-06 0.0000000e+00 
-3.7293699e-06 -5.5150561e-06 0.0000000e+00 
-5.1760076e-07 -5.4704772e-06 0.0000000e+00 
2.6823598e-06 -5.5363399e-06 0.0000000e+00 
-7.6660520e-06 -1.0202115e-05 0.0000000e+00 
-4.0358220e-06 -1.0042167e-05 0.0000000e+00 
-3.9330686e-07 -9.9974669e-06 0.0000000e+00 
3.2377697e-06 -1.0068138e-05 0.0000000e+00 
-8.4312383e-06 -1.5322042e-05 0.0000000e+00 
-4.3518560e-06 -1.5157012e-05 0.0000000e+00 
-2.6065614e-07 -1.5112021e-05 0.0000000e+00 
3.8194543e-06 -1.5186889e-05 0.0000000e+00 
-9.2230158e-06 -2.1052339e-05 0.0000000e+00 
-4.6771753e-06 -2.0882885e-05 0.0000000e+00 
-1.1992339e-07 -2.0837836e-05 0.0000000e+00 
4.4265480e-06 -2.0917244e-05 0.0000000e+00 
-1.0040672e-05 -2.7416954e-05 0.0000000e+00 
-5.0114420e-06 -2.7242811e-05 0.0000000e+00 
2.8601604e-08 -2.7197394e-05 0.0000000e+00 
5.0580814e-06 -2.7280675e-05 0.0000000e+00 
-1.0883138e-05 -3.4437500e-05 0.0000000e+00 
-5.3545758e-06 -3.4258719e-05 0.0000000e+00 
1.8440165e-07 -3.4212901e-05 0.0000000e+00 
5.7132795e-06 -3.4299886e-05 0.0000000e+00 
-1.1749512e-05 -4.2134147e-05 0.0000000e+00 
-5.7060598e-06 -4.1951523e-05 0.0000000e+00 
3.4739182e-07 -4.1905690e-05 0.0000000e+00 
6.3911460e-06 -4.1996825e-05 0.0000000e+00 
-1.2638902e-05 -5.0528781e-05 0.0000000e+00 
-6.0655670e-06 -5.0341851e-05 0.0000000e+00 
5.1721325e-07 -5.0295716e-05 0.0000000e+00 
7.0906514e-06 -5.0390098e-05 0.0000000e+00 
-1.3550129e-05 -5.9639252e-05 0.0000000e+00 
-6.4327625e-06 -5.9448919e-05 0.0000000e+00 
6.9351200e-07 -5.9402774e-05 0.0000000e+00 
7.8109079e-06 -5.9501019e-05 0.0000000e+00 
-1.4482232e-05 -6.9485827e-05 0.0000000e+00 
-6.8073178e-06 -6.9291460e-05 0.0000000e+00 
8.7597874e-07 -6.9245022e-05 0.0000000e+00 
8.5506945e-06 -6.9346207e-05 0.0000000e+00 
-1.5434113e-05 -8.0083950e-05 0.0000000e+00 
-7.1888811e-06 -7.9886612e-05 0.0000000e+00 
1.0642715e-06 -7.9840223e-05 0.0000000e+00 
9.3092438e-06 -7.9944988e-05 0.0000000e+00 
-1.6404958e-05 -9.1452336e-05 0.0000000e+00 
-7.5770746e-06 -9.1251362e-05 0.0000000e+00 
1.2581010e-06 -9.1204732e-05 0.0000000e+00 
1.0085394e-05 -9.1312111e-05 0.0000000e+00 
-1.7393444e-05 -1.0360464e-04 0.0000000e+00 
-7.9715754e-06 -1.0340112e-04 0.0000000e+00 
1.4571611e-06 -1.0335461e-04 0.0000000e+00 
1.0878366e-05 -1.0346531e-04 0.0000000e+00 
-1.8398874e-05 -1.1655781e-04 0.0000000e+00 
-8.3719457e-06 -1.1635113e-04 0.0000000e+00 
1.6611579e-06 -1.1630444e-04 0.0000000e+00 
1.1687011e-05 -1.1641740e-04 0.0000000e+00 
-1.9419769e-05 -1.3032401e-04 0.0000000e+00 
-8.7778326e-06 -1.3011523e-04 0.0000000e+00 
1.8697587e-06 -1.3006876e-04 0.0000000e+00 
1.2510589e-05 -1.3018476e-04 0.0000000e+00 
-2.0455302e-05 -1.4491821e-04 0.0000000e+00 
-9.1887475e-06 -1.4470678e-04 0.0000000e+00 
2.0827431e-06 -1.4466028e-04 0.0000000e+00 
1.3347706e-05 -1.4477837e-04 0.0000000e+00 
-2.1503950e-05 -1.6035058e-04 0.0000000e+00 
-9.6042951e-06 -1.6013755e-04 0.0000000e+00 
2.2997405e-06 -1.6009136e-04 0.0000000e+00 
1.4197717e-05 -1.6021219e-04 0.0000000e+00 
-2.2564841e-05 -1.7663413e-04 0.0000000e+00 
-1.0024022e-05 -1.7641889e-04 0.0000000e+00 
2.5204890e-06 -1.7637274e-04 0.0000000e+00 
1.5059209e-05 -1.7649537e-04 0.0000000e+00 
-2.3636500e-05 -1.9377680e-04 0.0000000e+00 
-1.0447534e-05 -1.9356043e-04 0.0000000e+00 
2.7446489e-06 -1.9351477e-04 0.0000000e+00 
1.5931484e-05 -1.9363985e-04 0.0000000e+00 
-2.4718275e-05 -2.1178945e-04 0.0000000e+00 
-1.0874216e-05 -2.1157163e-04 0.0000000e+00 
2.9720787e-06 -2.1152620e-04 0.0000000e+00 
1.6813068e-05 -2.1165300e-04 0.0000000e+00 
-2.5808398e-05 -2.3067959e-04 0.0000000e+00 
-1.1303918e-05 -2.3046049e-04 0.0000000e+00 
3.2022813e-06 -2.3041525e-04 0.0000000e+00 
1.7703468e-05 -2.3054373e-04 0.0000000e+00 
-2.6905864e-05 -2.5045335e-04 0.0000000e+00 
-1.1735989e-05 -2.5023381e-04 0.0000000e+00 
3.4352531e-06 -2.5018928e-04 0.0000000e+00 
1.8601879e-05 -2.5031983e-04 0.0000000e+00 
-2.8010063e-05 -2.7111858e-04 0.0000000e+00 
-1.2169921e-05 -2.7089836e-04 0.0000000e+00 
3.6708007e-06 -2.7085434e-04 0.0000000e+00 
1.9507096e-05 -2.7098632e-04 0.0000000e+00 
-2.9119230e-05 -2.9267971e-04 0.0000000e+00 
-1.2605402e-05 -2.9245950e-04 0.0000000e+00 
3.9085921e-06 -2.9241633e-04 0.0000000e+00 
2.0418659e-05 -2.9255014e-04 0.0000000e+00 
-3.0232811e-05 -3.1514201e-04 0.0000000e+00 
-1.3041772e-05 -3.1492196e-04 0.0000000e+00 
4.1486216e-06 -3.1487971e-04 0.0000000e+00 
2.1335094e-05 -3.1501512e-04 0.0000000e+00 
-3.1349027e-05 -3.3850907e-04 0.0000000e+00 
-1.3478691e-05 -3.3828946e-04 0.0000000e+00 
4.3905522e-06 -3.3824819e-04 0.0000000e+00 
2.2256333e-05 -3.3838518e-04 0.0000000e+00 
-3.2467231e-05 -3.6278353e-04 0.0000000e+00 
-1.3915569e-05 -3.6256480e-04 0.0000000e+00 
4.6342732e-06 -3.6252472e-04 0.0000000e+00 
2.3180942e-05 -3.6266327e-04 0.0000000e+00 
-3.3585843e-05 -3.8796786e-04 0.0000000e+00 
-1.4352037e-05 -3.8775004e-04 0.0000000e+00 
4.8794421e-06 -3.8771110e-04 0.0000000e+00 
2.4108194e-05 -3.8785093e-04 0.0000000e+00 
-3.4703999e-05 -4.1406237e-04 0.0000000e+00 
-1.4787599e-05 -4.1384599e-04 0.0000000e+00 
5.1257541e-06 -4.1380832e-04 0.0000000e+00 
2.5036745e-05 -4.1394940e-04 0.0000000e+00 
-3.5820071e-05 -4.4106767e-04 0.0000000e+00 
-1.5221859e-05 -4.4085269e-04 0.0000000e+00 
5.3728055e-06 -4.4081634e-04 0.0000000e+00 
2.5965761e-05 -4.4095834e-04 0.0000000e+00 
-3.6933124e-05 -4.6898126e-04 0.0000000e+00 
-1.5654084e-05 -4.6876872e-04 0.0000000e+00 
5.6204763e-06 -4.6873407e-04 0.0000000e+00 
2.6893567e-05 -4.6887745e-04 0.0000000e+00 
-3.8041085e-05 -4.9780268e-04 0.0000000e+00 
-1.6083825e-05 -4.9759208e-04 0.0000000e+00 
5.8682914e-06 -4.9755887e-04 0.0000000e+00 
2.7819581e-05 -4.9770274e-04 0.0000000e+00 
-3.9142767e-05 -5.2752622e-04 0.0000000e+00 
-1.6510464e-05 -5.2731875e-04 0.0000000e+00 
6.1159419e-06 -5.2728739e-04 0.0000000e+00 
2.8742057e-05 -5.2743238e-04 0.0000000e+00 
-4.0236426e-05 -5.5814909e-04 0.0000000e+00 
-1.6933545e-05 -5.5794413e-04 0.0000000e+00 
6.3629080e-06 -5.5791429e-04 0.0000000e+00 
2.9659831e-05 -5.5805934e-04 0.0000000e+00 
-4.1320669e-05 -5.8966230e-04 0.0000000e+00 
-1.7352380e-05 -5.8946137e-04 0.0000000e+00 
6.6087838e-06 -5.8943389e-04 0.0000000e+00 
3.0571247e-05 -5.8957969e-04 0.0000000e+00 
-4.2393606e-05 -6.2205975e-04 0.0000000e+00 
-1.7765884e-05 -6.2186330e-04 0.0000000e+00 
6.8536302e-06 -6.2183831e-04 0.0000000e+00 
3.1474748e-05 -6.2198507e-04 0.0000000e+00 
-4.3453357e-05 -6.5533416e-04 0.0000000e+00 
-1.8173925e-05 -6.5514113e-04 0.0000000e+00 
7.0965063e-06 -6.5511786e-04 0.0000000e+00 
3.2369244e-05 -6.5526384e-04 0.0000000e+00 
-4.4498375e-05 -6.8947114e-04 0.0000000e+00 
-1.8575790e-05 -6.8928349e-04 0.0000000e+00 
7.3369301e-06 -6.8926263e-04 0.0000000e+00 
3.3252768e-05 -6.8940910e-04 0.0000000e+00 
-4.5526662e-05 -7.2446242e-04 0.0000000e+00 
-1.8970867e-05 -7.2427882e-04 0.0000000e+00 
7.5743137e-06 -7.2425986e-04 0.0000000e+00 
3.4123516e-05 -7.2440490e-04 0.0000000e+00 
-4.6536499e-05 -7.6028976e-04 0.0000000e+00 
-1.9358385e-05 -7.6011253e-04 0.0000000e+00 
7.8082399e-06 -7.6009628e-04 0.0000000e+00 
3.4979494e-05 -7.6024159e-04 0.0000000e+00 
-4.7525908e-05 -7.9694245e-04 0.0000000e+00 
-1.9737749e-05 -7.9676990e-04 0.0000000e+00 
8.0380812e-06 -7.9675556e-04 0.0000000e+00 
3.5819338e-05 -7.9689882e-04 0.0000000e+00 
-4.8493045e-05 -8.3439870e-04 0.0000000e+00 
-2.0108403e-05 -8.3423308e-04 0.0000000e+00 
8.2632550e-06 -8.3422137e-04 0.0000000e+00 
3.6641187e-05 -8.3436428e-04 0.0000000e+00 
-4.9436358e-05 -8.7264434e-04 0.0000000e+00 
-2.0469753e-05 -8.7248400e-04 0.0000000e+00 
8.4831654e-06 -8.7247427e-04 0.0000000e+00 
3.7443198e-05 -8.7261449e-04 0.0000000e+00 
-5.0354126e-05 -9.1165432e-04 0.0000000e+00 
-2.0821161e-05 -9.1150169e-04 0.0000000e+00 
8.6973740e-06 -9.1149480e-04 0.0000000e+00 
3.8223620e-05 -9.1163436e-04 0.0000000e+00 
-5.1244624e-05 -9.5141202e-04 0.0000000e+00 
-2.1162099e-05 -9.5126521e-04 0.0000000e+00 
8.9053265e-06 -9.5126026e-04 0.0000000e+00 
3.8981144e-05 -9.5139652e-04 0.0000000e+00 
-5.2106305e-05 -9.9188927e-04 0.0000000e+00 
-2.1492105e-05 -9.9175061e-04 0.0000000e+00 
9.1065653e-06 -9.9174846e-04 0.0000000e+00 
3.9714303e-05 -9.9188361e-04 0.0000000e+00 
-5.2938133e-05 -1.0330667e-03 0.0000000e+00 
-2.1810742e-05 -1.0329342e-03 0.0000000e+00 
9.3006744e-06 -1.0329340e-03 0.0000000e+00 
4.0421641e-05 -1.0330654e-03 0.0000000e+00 
-5.3738896e-05 -1.0749137e-03 0.0000000e+00 
-2.2117634e-05 -1.0747899e-03 0.0000000e+00 
9.4872253e-06 -1.0747924e-03 0.0000000e+00 
4.1102168e-05 -1.0749222e-03 0.0000000e+00 
-5.4507511e-05 -1.1174095e-03 0.0000000e+00 
-2.2412487e-05 -1.1172922e-03 0.0000000e+00 
9.6658291e-06 -1.1172965e-03 0.0000000e+00 
4.1754780e-05 -1.1174220e-03 0.0000000e+00 
-5.5242774e-05 -1.1605214e-03 0.0000000e+00 
-2.2695130e-05 -1.1604127e-03 0.0000000e+00 
9.8361292e-06 -1.1604201e-03 0.0000000e+00 
4.2378843e-05 -1.1605436e-03 0.0000000e+00 
-5.5944711e-05 -1.2042238e-03 0.0000000e+00 
-2.2964534e-05 -1.2041239e-03 0.0000000e+00 
9.9988101e-06 -1.2041343e-03 0.0000000e+00 
4.2973403e-05 -1.2042557e-03 0.0000000e+00 
-5.6612675e-05 -1.2484912e-03 0.0000000e+00 
-2.3221432e-05 -1.2483979e-03 0.0000000e+00 
1.0152861e-05 -1.2484100e-03 0.0000000e+00 
4.3538309e-05 -1.2485269e-03 0.0000000e+00 
-5.7246597e-05 -1.2932899e-03 0.0000000e+00 
-2.3465838e-05 -1.2932053e-03 0.0000000e+00 
1.0298249e-05 -1.2932200e-03 0.0000000e+00 
4.4073598e-05 -1.2933347e-03 0.0000000e+00 
-5.7847068e-05 -1.3385965e-03 0.0000000e+00 
-2.3697746e-05 -1.3385184e-03 0.0000000e+00 
1.0435098e-05 -1.3385347e-03 0.0000000e+00 
4.4579076e-05 -1.3386448e-03 0.0000000e+00 
-5.8414258e-05 -1.3843778e-03 0.0000000e+00 
-2.3917324e-05 -1.3843082e-03 0.0000000e+00 
1.0563481e-05 -1.3843269e-03 0.0000000e+00 
4.5055310e-05 -1.3844350e-03 0.0000000e+00 
-5.8948885e-05 -1.4306110e-03 0.0000000e+00 
-2.4124767e-05 -1.4305476e-03 0.0000000e+00 
1.0683609e-05 -1.4305680e-03 0.0000000e+00 
4.5502638e-05 -1.4306715e-03 0.0000000e+00 
-5.9451556e-05 -1.4772641e-03 0.0000000e+00 
-2.4320352e-05 -1.4772089e-03 0.0000000e+00 
1.0795601e-05 -1.4772316e-03 0.0000000e+00 
4.5922080e-05 -1.4773330e-03 0.0000000e+00 
-5.9923297e-05 -1.5243157e-03 0.0000000e+00 
-2.4504366e-05 -1.5242663e-03 0.0000000e+00 
1.0899770e-05 -1.5242904e-03 0.0000000e+00 
4.6314009e-05 -1.5243876e-03 0.0000000e+00 
-6.0364879e-05 -1.5717353e-03 0.0000000e+00 
-2.4677190e-05 -1.5716935e-03 0.0000000e+00 
1.0996329e-05 -1.5717198e-03 0.0000000e+00 
4.6679649e-05 -1.5718151e-03 0.0000000e+00 
-6.0777647e-05 -1.6195029e-03 0.0000000e+00 
-2.4839177e-05 -1.6194665e-03 0.0000000e+00 
1.1085651e-05 -1.6194942e-03 0.0000000e+00 
4.7019763e-05 -1.6195855e-03 0.0000000e+00 
-6.1162529e-05 -1.6675901e-03 0.0000000e+00 
-2.4990787e-05 -1.6675608e-03 0.0000000e+00 
1.1167978e-05 -1.6675906e-03 0.0000000e+00 
4.7335756e-05 -1.6676801e-03 0.0000000e+00 
-6.1520965e-05 -1.7159790e-03 0.0000000e+00 
-2.5132408e-05 -1.7159546e-03 0.0000000e+00 
1.1243720e-05 -1.7159855e-03 0.0000000e+00 
4.7628313e-05 -1.7160714e-03 0.0000000e+00 
-6.1853942e-05 -1.7646433e-03 0.0000000e+00 
-2.5264547e-05 -1.7646254e-03 0.0000000e+00 
1.1313131e-05 -1.7646582e-03 0.0000000e+00 
4.7898922e-05 -1.7647425e-03 0.0000000e+00 
-6.2162981e-05 -1.8135670e-03 0.0000000e+00 
-2.5387652e-05 -1.8135534e-03 0.0000000e+00 
1.1376599e-05 -1.8135873e-03 0.0000000e+00 
4.8148477e-05 -1.8136683e-03 0.0000000e+00 
-6.2448976e-05 -1.8627262e-03 0.0000000e+00 
-2.5502294e-05 -1.8627184e-03 0.0000000e+00 
1.1434349e-05 -1.8627541e-03 0.0000000e+00 
4.8378610e-05 -1.8628337e-03 0.0000000e+00 
-6.2713613e-05 -1.9121048e-03 0.0000000e+00 
-2.5608311e-05 -1.9121024e-03 0.0000000e+00 
1.1487333e-05 -1.9121401e-03 0.0000000e+00 
4.8589976e-05 -1.9122182e-03 0.0000000e+00 
-6.2958066e-05 -1.9616876e-03 0.0000000e+00 
-2.5706788e-05 -1.9616888e-03 0.0000000e+00 
1.1535249e-05 -1.9617273e-03 0.0000000e+00 
4.8783697e-05 -1.9618026e-03 0.0000000e+00 
-6.3183302e-05 -2.0114543e-03 0.0000000e+00 
-2.5798190e-05 -2.0114605e-03 0.0000000e+00 
1.1578352e-05 -2.0115004e-03 0.0000000e+00 
4.8961063e-05 -2.0115745e-03 0.0000000e+00 
-6.3390837e-05 -2.0613934e-03 0.0000000e+00 
-2.5882837e-05 -2.0614028e-03 0.0000000e+00 
1.1617034e-05 -2.0614435e-03 0.0000000e+00 
4.9122641e-05 -2.0615151e-03 0.0000000e+00 
-6.3581406e-05 -2.1114870e-03 0.0000000e+00 
-2.5961202e-05 -2.1115008e-03 0.0000000e+00 
1.1651489e-05 -2.1115427e-03 0.0000000e+00 
4.9269679e-05 -2.1116133e-03 0.0000000e+00 
-6.3756363e-05 -2.1617250e-03 0.0000000e+00 
-2.6033606e-05 -2.1617415e-03 0.0000000e+00 
1.1682024e-05 -2.1617841e-03 0.0000000e+00 
4.9402764e-05 -2.1618525e-03 0.0000000e+00 
-6.3916342e-05 -2.2120913e-03 0.0000000e+00 
-2.6100490e-05 -2.2121117e-03 0.0000000e+00 
1.1708797e-05 -2.2121554e-03 0.0000000e+00 
4.9523017e-05 -2.2122228e-03 0.0000000e+00 
-6.4062577e-05 -2.2625772e-03 0.0000000e+00 
-2.6162136e-05 -2.2626000e-03 0.0000000e+00 
1.1732079e-05 -2.2626443e-03 0.0000000e+00 
4.9630888e-05 -2.2627097e-03 0.0000000e+00 
-6.4195606e-05 -2.3131686e-03 0.0000000e+00 
-2.6218941e-05 -2.3131947e-03 0.0000000e+00 
1.1751997e-05 -2.3132399e-03 0.0000000e+00 
4.9727370e-05 -2.3133045e-03 0.0000000e+00 
-6.4316528e-05 -2.3638574e-03 0.0000000e+00 
-2.6271153e-05 -2.3638857e-03 0.0000000e+00 
1.1768788e-05 -2.3639314e-03 0.0000000e+00 
4.9812868e-05 -2.3639943e-03 0.0000000e+00 
-6.4425798e-05 -2.4146315e-03 0.0000000e+00 
-2.6319135e-05 -2.4146627e-03 0.0000000e+00 
1.1782559e-05 -2.4147092e-03 0.0000000e+00 
4.9888265e-05 -2.4147713e-03 0.0000000e+00 
-6.4524443e-05 -2.4654837e-03 0.0000000e+00 
-2.6363110e-05 -2.4655168e-03 0.0000000e+00 
1.1793521e-05 -2.4655636e-03 0.0000000e+00 
4.9953891e-05 -2.4656241e-03 0.0000000e+00 
-6.4612872e-05 -2.5164031e-03 0.0000000e+00 
-2.6403413e-05 -2.5164387e-03 0.0000000e+00 
1.1801761e-05 -2.5164862e-03 0.0000000e+00 
5.0010557e-05 -2.5165460e-03 0.0000000e+00 
-6.4691996e-05 -2.5673834e-03 0.0000000e+00 
-2.6440260e-05 -2.5674206e-03 0.0000000e+00 
1.1807460e-05 -2.5674685e-03 0.0000000e+00 
5.0058572e-05 -2.5675268e-03 0.0000000e+00 
-6.4762138e-05 -2.6184151e-03 0.0000000e+00 
-2.6473991e-05 -2.6184545e-03 0.0000000e+00 
1.1810666e-05 -2.6185030e-03 0.0000000e+00 
5.0098742e-05 -2.6185605e-03 0.0000000e+00 
-6.4824203e-05 -2.6694921e-03 0.0000000e+00 
-2.6504613e-05 -2.6695334e-03 0.0000000e+00 
1.1811740e-05 -2.6695824e-03 0.0000000e+00 
5.0131295e-05 -2.6696392e-03 0.0000000e+00 
-6.4878824e-05 -2.7206081e-03 0.0000000e+00 
-2.6532608e-05 -2.7206506e-03 0.0000000e+00 
1.1810566e-05 -2.7206998e-03 0.0000000e+00 
5.0156679e-05 -2.7207554e-03 0.0000000e+00 
-6.4926388e-05 -2.7717555e-03 0.0000000e+00 
-2.6558232e-05 -2.7717997e-03 0.0000000e+00 
1.1807229e-05 -2.7718492e-03 0.0000000e+00 
5.0175541e-05 -2.7719042e-03 0.0000000e+00 
-6.4967674e-05 -2.8229298e-03 0.0000000e+00 
-2.6581649e-05 -2.8229750e-03 0.0000000e+00 
1.1801903e-05 -2.8230247e-03 0.0000000e+00 
5.0188086e-05 -2.8230785e-03 0.0000000e+00 
-6.5003023e-05 -2.8741245e-03 0.0000000e+00 
-2.6603119e-05 -2.8741711e-03 0.0000000e+00 
1.1794651e-05 -2.8742210e-03 0.0000000e+00 
5.0194973e-05 -2.8742742e-03 0.0000000e+00 
-6.5033177e-05 -2.9253357e-03 0.0000000e+00 
-2.6622808e-05 -2.9253831e-03 0.0000000e+00 
1.1785624e-05 -2.9254330e-03 0.0000000e+00 
5.0196407e-05 -2.9254854e-03 0.0000000e+00 
-6.5058445e-05 -2.9765579e-03 0.0000000e+00 