# vtk DataFile Version 4.0
vtk output
ASCII
DATASET UNSTRUCTURED_GRID
POINTS 604 float
5.5000000e+00 5.9700000e+00 0.0000000e+00 
5.5000000e+00 5.9900000e+00 0.0000000e+00 
5.5266667e+00 5.9700000e+00 0.0000000e+00 
5.5266667e+00 5.9900000e+00 0.0000000e+00 
5.5000000e+00 6.0100000e+00 0.0000000e+00 
5.5266667e+00 6.0100000e+00 0.0000000e+00 
5.5533333e+00 5.9700000e+00 0.0000000e+00 
5.5533333e+00 5.9900000e+00 0.0000000e+00 
5.5000000e+00 6.0300000e+00 0.0000000e+00 
5.5266667e+00 6.0300000e+00 0.0000000e+00 
5.5533333e+00 6.0100000e+00 0.0000000e+00 
5.5800000e+00 5.9700000e+00 0.0000000e+00 
5.5533333e+00 6.0300000e+00 0.0000000e+00 
5.5800000e+00 5.9900000e+00 0.0000000e+00 
5.5800000e+00 6.0100000e+00 0.0000000e+00 
5.5800000e+00 6.0300000e+00 0.0000000e+00 
5.6066667e+00 5.9700000e+00 0.0000000e+00 
5.6066667e+00 5.9900000e+00 0.0000000e+00 
5.6066667e+00 6.0100000e+00 0.0000000e+00 
5.6066667e+00 6.0300000e+00 0.0000000e+00 
5.6333333e+00 5.9700000e+00 0.0000000e+00 
5.6333333e+00 5.9900000e+00 0.0000000e+00 
5.6333333e+00 6.0100000e+00 0.0000000e+00 
5.6333333e+00 6.0300000e+00 0.0000000e+00 
5.6600000e+00 5.9700000e+00 0.0000000e+00 
5.6600000e+00 5.9900000e+00 0.0000000e+00 
5.6600000e+00 6.0100000e+00 0.0000000e+00 
5.6600000e+00 6.0300000e+00 0.0000000e+00 
5.6866667e+00 5.9700000e+00 0.0000000e+00 
5.6866667e+00 5.9900000e+00 0.0000000e+00 
5.6866667e+00 6.0100000e+00 0.0000000e+00 
5.6866667e+00 6.0300000e+00 0.0000000e+00 
5.7133333e+00 5.9700000e+00 0.0000000e+00 
5.7133333e+00 5.9900000e+00 0.0000000e+00 
5.7133333e+00 6.0100000e+00 0.0000000e+00 
5.7133333e+00 6.0300000e+00 0.0000000e+00 
5.7400000e+00 5.9700000e+00 0.0000000e+00 
5.7400000e+00 5.9900000e+00 0.0000000e+00 
5.7400000e+00 6.0100000e+00 0.0000000e+00 
5.7400000e+00 6.0300000e+00 0.0000000e+00 
5.7666667e+00 5.9700000e+00 0.0000000e+00 
5.7666667e+00 5.9900000e+00 0.0000000e+00 
5.7666667e+00 6.0100000e+00 0.0000000e+00 
5.7666667e+00 6.0300000e+00 0.0000000e+00 
5.7933333e+00 5.9700000e+00 0.0000000e+00 
5.7933333e+00 5.9900000e+00 0.0000000e+00 
5.7933333e+00 6.0100000e+00 0.0000000e+00 
5.7933333e+00 6.0300000e+00 0.0000000e+00 
5.8200000e+00 5.9700000e+00 0.0000000e+00 
5.8200000e+00 5.9900000e+00 0.0000000e+00 
5.8200000e+00 6.0100000e+00 0.0000000e+00 
5.8200000e+00 6.0300000e+00 0.0000000e+00 
5.8466667e+00 5.9700000e+00 0.0000000e+00 
5.8466667e+00 5.9900000e+00 0.0000000e+00 
5.8466667e+00 6.0100000e+00 0.0000000e+00 
5.8466667e+00 6.0300000e+00 0.0000000e+00 
5.8733333e+00 5.9700000e+00 0.0000000e+00 
5.8733333e+00 5.9900000e+00 0.0000000e+00 
5.8733333e+00 6.0100000e+00 0.0000000e+00 
5.8733333e+00 6.0300000e+00 0.0000000e+00 
5.9000000e+00 5.9700000e+00 0.0000000e+00 
5.9000000e+00 5.9900000e+00 0.0000000e+00 
5.9000000e+00 6.0100000e+00 0.0000000e+00 
5.9000000e+00 6.0300000e+00 0.0000000e+00 
5.9266667e+00 5.9700000e+00 0.0000000e+00 
5.9266667e+00 5.9900000e+00 0.0000000e+00 
5.9266667e+00 6.0100000e+00 0.0000000e+00 
5.9266667e+00 6.0300000e+00 0.0000000e+00 
5.9533333e+00 5.9700000e+00 0.0000000e+00 
5.9533333e+00 5.9900000e+00 0.0000000e+00 
5.9533333e+00 6.0100000e+00 0.0000000e+00 
5.9533333e+00 6.0300000e+00 0.0000000e+00 
5.9800000e+00 5.9700000e+00 0.0000000e+00 
5.9800000e+00 5.9900000e+00 0.0000000e+00 
5.9800000e+00 6.0100000e+00 0.0000000e+00 
5.9800000e+00 6.0300000e+00 0.0000000e+00 
6.0066667e+00 5.9700000e+00 0.0000000e+00 
6.0066667e+00 5.9900000e+00 0.0000000e+00 
6.0066667e+00 6.0100000e+00 0.0000000e+00 
6.0066667e+00 6.0300000e+00 0.0000000e+00 
6.0333333e+00 5.9700000e+00 0.0000000e+00 
6.0333333e+00 5.9900000e+00 0.0000000e+00 
6.0333333e+00 6.0100000e+00 0.0000000e+00 
6.0333333e+00 6.0300000e+00 0.0000000e+00 
6.0600000e+00 5.9700000e+00 0.0000000e+00 
6.0600000e+00 5.9900000e+00 0.0000000e+00 
6.0600000e+00 6.0100000e+00 0.0000000e+00 
6.0600000e+00 6.0300000e+00 0.0000000e+00 
6.0866667e+00 5.9700000e+00 0.0000000e+00 
6.0866667e+00 5.9900000e+00 0.0000000e+00 
6.0866667e+00 6.0100000e+00 0.0000000e+00 
6.0866667e+00 6.0300000e+00 0.0000000e+00 
6.1133333e+00 5.9700000e+00 0.0000000e+00 
6.1133333e+00 5.9900000e+00 0.0000000e+00 
6.1133333e+00 6.0100000e+00 0.0000000e+00 
6.1133333e+00 6.0300000e+00 0.0000000e+00 
6.1400000e+00 5.9700000e+00 0.0000000e+00 
6.1400000e+00 5.9900000e+00 0.0000000e+00 
6.1400000e+00 6.0100000e+00 0.0000000e+00 
6.1400000e+00 6.0300000e+00 0.0000000e+00 
6.1666667e+00 5.9700000e+00 0.0000000e+00 
6.1666667e+00 5.9900000e+00 0.0000000e+00 
6.1666667e+00 6.0100000e+00 0.0000000e+00 
6.1666667e+00 6.0300000e+00 0.0000000e+00 
6.1933333e+00 5.9700000e+00 0.0000000e+00 
6.1933333e+00 5.9900000e+00 0.0000000e+00 
6.1933333e+00 6.0100000e+00 0.0000000e+00 
6.1933333e+00 6.0300000e+00 0.0000000e+00 
6.2200000e+00 5.9700000e+00 0.0000000e+00 
6.2200000e+00 5.9900000e+00 0.0000000e+00 
6.2200000e+00 6.0100000e+00 0.0000000e+00 
6.2200000e+00 6.0300000e+00 0.0000000e+00 
6.2466667e+00 5.9700000e+00 0.0000000e+00 
6.2466667e+00 5.9900000e+00 0.0000000e+00 
6.2466667e+00 6.0100000e+00 0.0000000e+00 
6.2466667e+00 6.0300000e+00 0.0000000e+00 
6.2733333e+00 5.9700000e+00 0.0000000e+00 
6.2733333e+00 5.9900000e+00 0.0000000e+00 
6.2733333e+00 6.0100000e+00 0.0000000e+00 
6.2733333e+00 6.0300000e+00 0.0000000e+00 
6.3000000e+00 5.9700000e+00 0.0000000e+00 
6.3000000e+00 5.9900000e+00 0.0000000e+00 
6.3000000e+00 6.0100000e+00 0.0000000e+00 
6.3000000e+00 6.0300000e+00 0.0000000e+00 
6.3266667e+00 5.9700000e+00 0.0000000e+00 
6.3266667e+00 5.9900000e+00 0.0000000e+00 
6.3266667e+00 6.0100000e+00 0.0000000e+00 
6.3266667e+00 6.0300000e+00 0.0000000e+00 
6.3533333e+00 5.9700000e+00 0.0000000e+00 
6.3533333e+00 5.9900000e+00 0.0000000e+00 
6.3533333e+00 6.0100000e+00 0.0000000e+00 
6.3533333e+00 6.0300000e+00 0.0000000e+00 
6.3800000e+00 5.9700000e+00 0.0000000e+00 
6.3800000e+00 5.9900000e+00 0.0000000e+00 
6.3800000e+00 6.0100000e+00 0.0000000e+00 
6.3800000e+00 6.0300000e+00 0.0000000e+00 
6.4066667e+00 5.9700000e+00 0.0000000e+00 
6.4066667e+00 5.9900000e+00 0.0000000e+00 
6.4066667e+00 6.0100000e+00 0.0000000e+00 
6.4066667e+00 6.0300000e+00 0.0000000e+00 
6.4333333e+00 5.9700000e+00 0.0000000e+00 
6.4333333e+00 5.9900000e+00 0.0000000e+00 
6.4333333e+00 6.0100000e+00 0.0000000e+00 
6.4333333e+00 6.0300000e+00 0.0000000e+00 
6.4600000e+00 5.9700000e+00 0.0000000e+00 
6.4600000e+00 5.9900000e+00 0.0000000e+00 
6.4600000e+00 6.0100000e+00 0.0000000e+00 
6.4600000e+00 6.0300000e+00 0.0000000e+00 
6.4866667e+00 5.9700000e+00 0.0000000e+00 
6.4866667e+00 5.9900000e+00 0.0000000e+00 
6.4866667e+00 6.0100000e+00 0.0000000e+00 
6.4866667e+00 6.0300000e+00 0.0000000e+00 
6.5133333e+00 5.9700000e+00 0.0000000e+00 
6.5133333e+00 5.9900000e+00 0.0000000e+00 
6.5133333e+00 6.0100000e+00 0.0000000e+00 
6.5133333e+00 6.0300000e+00 0.0000000e+00 
6.5400000e+00 5.9700000e+00 0.0000000e+00 
6.5400000e+00 5.9900000e+00 0.0000000e+00 
6.5400000e+00 6.0100000e+00 0.0000000e+00 
6.5400000e+00 6.0300000e+00 0.0000000e+00 
6.5666667e+00 5.9700000e+00 0.0000000e+00 
6.5666667e+00 5.9900000e+00 0.0000000e+00 
6.5666667e+00 6.0100000e+00 0.0000000e+00 
6.5666667e+00 6.0300000e+00 0.0000000e+00 
6.5933333e+00 5.9700000e+00 0.0000000e+00 
6.5933333e+00 5.9900000e+00 0.0000000e+00 
6.5933333e+00 6.0100000e+00 0.0000000e+00 
6.5933333e+00 6.0300000e+00 0.0000000e+00 
6.6200000e+00 5.9700000e+00 0.0000000e+00 
6.6200000e+00 5.9900000e+00 0.0000000e+00 
6.6200000e+00 6.0100000e+00 0.0000000e+00 
6.6200000e+00 6.0300000e+00 0.0000000e+00 
6.6466667e+00 5.9700000e+00 0.0000000e+00 
6.6466667e+00 5.9900000e+00 0.0000000e+00 
6.6466667e+00 6.0100000e+00 0.0000000e+00 
6.6466667e+00 6.0300000e+00 0.0000000e+00 
6.6733333e+00 5.9700000e+00 0.0000000e+00 
6.6733333e+00 5.9900000e+00 0.0000000e+00 
6.6733333e+00 6.0100000e+00 0.0000000e+00 
6.6733333e+00 6.0300000e+00 0.0000000e+00 
6.7000000e+00 5.9700000e+00 0.0000000e+00 
6.7000000e+00 5.9900000e+00 0.0000000e+00 
6.7000000e+00 6.0100000e+00 0.0000000e+00 
6.7000000e+00 6.0300000e+00 0.0000000e+00 
6.7266667e+00 5.9700000e+00 0.0000000e+00 
6.7266667e+00 5.9900000e+00 0.0000000e+00 
6.7266667e+00 6.0100000e+00 0.0000000e+00 
6.7266667e+00 6.0300000e+00 0.0000000e+00 
6.7533333e+00 5.9700000e+00 0.0000000e+00 
6.7533333e+00 5.9900000e+00 0.0000000e+00 
6.7533333e+00 6.0100000e+00 0.0000000e+00 
6.7533333e+00 6.0300000e+00 0.0000000e+00 
6.7800000e+00 5.9700000e+00 0.0000000e+00 
6.7800000e+00 5.9900000e+00 0.0000000e+00 
6.7800000e+00 6.0100000e+00 0.0000000e+00 
6.7800000e+00 6.0300000e+00 0.0000000e+00 
6.8066667e+00 5.9700000e+00 0.0000000e+00 
6.8066667e+00 5.9900000e+00 0.0000000e+00 
6.8066667e+00 6.0100000e+00 0.0000000e+00 
6.8066667e+00 6.0300000e+00 0.0000000e+00 
6.8333333e+00 5.9700000e+00 0.0000000e+00 
6.8333333e+00 5.9900000e+00 0.0000000e+00 
6.8333333e+00 6.0100000e+00 0.0000000e+00 
6.8333333e+00 6.0300000e+00 0.0000000e+00 
6.8600000e+00 5.9700000e+00 0.0000000e+00 
6.8600000e+00 5.9900000e+00 0.0000000e+00 
6.8600000e+00 6.0100000e+00 0.0000000e+00 
6.8600000e+00 6.0300000e+00 0.0000000e+00 
6.8866667e+00 5.9700000e+00 0.0000000e+00 
6.8866667e+00 5.9900000e+00 0.0000000e+00 
6.8866667e+00 6.0100000e+00 0.0000000e+00 
6.8866667e+00 6.0300000e+00 0.0000000e+00 
6.9133333e+00 5.9700000e+00 0.0000000e+00 
6.9133333e+00 5.9900000e+00 0.0000000e+00 
6.9133333e+00 6.0100000e+00 0.0000000e+00 
6.9133333e+00 6.0300000e+00 0.0000000e+00 
6.9400000e+00 5.9700000e+00 0.0000000e+00 
6.9400000e+00 5.9900000e+00 0.0000000e+00 
6.9400000e+00 6.0100000e+00 0.0000000e+00 
6.9400000e+00 6.0300000e+00 0.0000000e+00 
6.9666667e+00 5.9700000e+00 0.0000000e+00 
6.9666667e+00 5.9900000e+00 0.0000000e+00 
6.9666667e+00 6.0100000e+00 0.0000000e+00 
6.9666667e+00 6.0300000e+00 0.0000000e+00 
6.9933333e+00 5.9700000e+00 0.0000000e+00 
6.9933333e+00 5.9900000e+00 0.0000000e+00 
6.9933333e+00 6.0100000e+00 0.0000000e+00 
6.9933333e+00 6.0300000e+00 0.0000000e+00 
7.0200000e+00 5.9700000e+00 0.0000000e+00 
7.0200000e+00 5.9900000e+00 0.0000000e+00 
[...]
POINT_DATA 604
FIELD FieldData 2
DISPLACEMENT 3 604  float
0.0000000e+00 0.0000000e+00 0.0000000e+00 
0.0000000e+00 0.0000000e+00 0.0000000e+00 
-1.6521590e-04 -9.9109216e-05 0.0000000e+00 
-5.2812879e-05 -6.4956193e-05 0.0000000e+00 
0.0000000e+00 0.0000000e+00 0.0000000e+00 
5.1560084e-05 -6.5365114e-05 0.0000000e+00 
-3.3343941e-04 -3.1732245e-04 0.0000000e+00 
-1.1229686e-04 -2.9029488e-04 0.0000000e+00 
0.0000000e+00 0.0000000e+00 0.0000000e+00 
1.6370971e-04 -1.0021683e-04 0.0000000e+00 
1.0820478e-04 -2.9168596e-04 0.0000000e+00 
-5.0043849e-04 -6.8575704e-04 0.0000000e+00 
3.2872183e-04 -3.2132512e-04 0.0000000e+00 
-1.6951957e-04 -6.6011442e-04 0.0000000e+00 
1.5938736e-04 -6.6297968e-04 0.0000000e+00 
4.8933071e-04 -6.9421832e-04 0.0000000e+00 
-6.6650333e-04 -1.1969719e-03 0.0000000e+00 
-2.2848618e-04 -1.1740032e-03 0.0000000e+00 
2.0753985e-04 -1.1789061e-03 0.0000000e+00 
6.4430831e-04 -1.2115771e-03 0.0000000e+00 
-8.3251177e-04 -1.8487217e-03 0.0000000e+00 
-2.8943801e-04 -1.8288628e-03 0.0000000e+00 
2.5151369e-04 -1.8363247e-03 0.0000000e+00 
7.9307902e-04 -1.8710210e-03 0.0000000e+00 
-9.9914109e-04 -2.6382229e-03 0.0000000e+00 
-3.5310387e-04 -2.6219602e-03 0.0000000e+00 
2.9070411e-04 -2.6324645e-03 0.0000000e+00 
9.3498807e-04 -2.6696693e-03 0.0000000e+00 
-1.1670462e-03 -3.5627679e-03 0.0000000e+00 
-4.2011271e-04 -3.5505481e-03 0.0000000e+00 
3.2449114e-04 -3.5645479e-03 0.0000000e+00 
1.0694426e-03 -3.6047194e-03 0.0000000e+00 
-1.3368404e-03 -4.6196682e-03 0.0000000e+00 
-4.9105833e-04 -4.6119088e-03 0.0000000e+00 
3.5230166e-04 -4.6298271e-03 0.0000000e+00 
1.1958885e-03 -4.6733932e-03 0.0000000e+00 
-1.5090983e-03 -5.8062611e-03 0.0000000e+00 
-5.6649469e-04 -5.8033504e-03 0.0000000e+00 
3.7360169e-04 -5.8255811e-03 0.0000000e+00 
1.3138117e-03 -5.8729407e-03 0.0000000e+00 
-1.6843562e-03 -7.1199091e-03 0.0000000e+00 
-6.4693787e-04 -7.1222072e-03 0.0000000e+00 
3.8789553e-04 -7.1491164e-03 0.0000000e+00 
1.4227363e-03 -7.2006404e-03 0.0000000e+00 
-1.8631147e-03 -8.5580006e-03 0.0000000e+00 
-7.3286713e-04 -8.5658408e-03 0.0000000e+00 
3.9472421e-04 -8.5977672e-03 0.0000000e+00 
1.5222238e-03 -8.6537994e-03 0.0000000e+00 
-2.0458378e-03 -1.0117950e-02 0.0000000e+00 
-8.2472667e-04 -1.0131639e-02 0.0000000e+00 
3.9366437e-04 -1.0168895e-02 0.0000000e+00 
1.6118709e-03 -1.0229754e-02 0.0000000e+00 
-2.2329574e-03 -1.1797197e-02 0.0000000e+00 
-9.2292643e-04 -1.1817017e-02 0.0000000e+00 
3.8432680e-04 -1.1859891e-02 0.0000000e+00 
1.6913094e-03 -1.1925869e-02 0.0000000e+00 
-2.4248719e-03 -1.3593210e-02 0.0000000e+00 
-1.0278439e-03 -1.3619418e-02 0.0000000e+00 
3.6635535e-04 -1.3668174e-02 0.0000000e+00 
1.7602038e-03 -1.3739539e-02 0.0000000e+00 
-2.6219494e-03 -1.5503482e-02 0.0000000e+00 
-1.1398249e-03 -1.5536313e-02 0.0000000e+00 
3.3942547e-04 -1.5591190e-02 0.0000000e+00 
1.8182510e-03 -1.5668189e-02 0.0000000e+00 
-2.8245269e-03 -1.7525535e-02 0.0000000e+00 
-1.2591850e-03 -1.7565200e-02 0.0000000e+00 
3.0324309e-04 -1.7626417e-02 0.0000000e+00 
1.8651780e-03 -1.7709272e-02 0.0000000e+00 
-3.0329126e-03 -1.9656917e-02 0.0000000e+00 
-1.3862108e-03 -1.9703608e-02 0.0000000e+00 
2.5754344e-04 -1.9771360e-02 0.0000000e+00 
1.9007414e-03 -1.9860274e-02 0.0000000e+00 
-3.2473876e-03 -2.1895206e-02 0.0000000e+00 
-1.5211608e-03 -2.1949091e-02 0.0000000e+00 
2.0208983e-04 -2.2023555e-02 0.0000000e+00 
1.9247264e-03 -2.2118710e-02 0.0000000e+00 
-3.4682053e-03 -2.4238005e-02 0.0000000e+00 
-1.6642667e-03 -2.4299236e-02 0.0000000e+00 
1.3667249e-04 -2.4380568e-02 0.0000000e+00 
1.9369450e-03 -2.4482123e-02 0.0000000e+00 
-3.6955945e-03 -2.6682948e-02 0.0000000e+00 
-1.8157348e-03 -2.6751655e-02 0.0000000e+00 
6.1107561e-05 -2.6839991e-02 0.0000000e+00 
1.9372352e-03 -2.6948092e-02 0.0000000e+00 
-3.9297607e-03 -2.9227696e-02 0.0000000e+00 
-1.9757469e-03 -2.9303991e-02 0.0000000e+00 
-2.4764177e-05 -2.9399453e-02 0.0000000e+00 
1.9254606e-03 -2.9514222e-02 0.0000000e+00 
-4.1708847e-03 -3.1869940e-02 0.0000000e+00 
-2.1444612e-03 -3.1953920e-02 0.0000000e+00 
-1.2107836e-04 -3.2056607e-02 0.0000000e+00 
1.9015077e-03 -3.2178153e-02 0.0000000e+00 
-4.4191242e-03 -3.4607399e-02 0.0000000e+00 
-2.3220132e-03 -3.4699143e-02 0.0000000e+00 
-2.2794806e-04 -3.4809141e-02 0.0000000e+00 
1.8652856e-03 -3.4937555e-02 0.0000000e+00 
-4.6746165e-03 -3.7437822e-02 0.0000000e+00 
-2.5085166e-03 -3.7537393e-02 0.0000000e+00 
-3.4546491e-04 -3.7654772e-02 0.0000000e+00 
1.8167250e-03 -3.7790129e-02 0.0000000e+00 
-4.9374754e-03 -4.0358985e-02 0.0000000e+00 
-2.7040649e-03 -4.0466431e-02 0.0000000e+00 
-4.7369980e-04 -4.0591246e-02 0.0000000e+00 
1.7557767e-03 -4.0733606e-02 0.0000000e+00 
-5.2077980e-03 -4.3368693e-02 0.0000000e+00 
-2.9087314e-03 -4.3484049e-02 0.0000000e+00 
-6.1270406e-04 -4.3616340e-02 0.0000000e+00 
1.6824117e-03 -4.3765748e-02 0.0000000e+00 
-5.4856618e-03 -4.6464781e-02 0.0000000e+00 
-3.1225714e-03 -4.6588067e-02 0.0000000e+00 
-7.6251017e-04 -4.6727859e-02 0.0000000e+00 
1.5966198e-03 -4.6884348e-02 0.0000000e+00 
-5.7711276e-03 -4.9645112e-02 0.0000000e+00 
-3.3456222e-03 -4.9776335e-02 0.0000000e+00 
-9.2313299e-04 -4.9923643e-02 0.0000000e+00 
1.4984087e-03 -5.0087232e-02 0.0000000e+00 
-6.0642384e-03 -5.2907578e-02 0.0000000e+00 
-3.5779045e-03 -5.3046733e-02 0.0000000e+00 
-1.0945705e-03 -5.3201558e-02 0.0000000e+00 
1.3878029e-03 -5.3372253e-02 0.0000000e+00 
-6.3650220e-03 -5.6250102e-02 0.0000000e+00 
-3.8194228e-03 -5.6397172e-02 0.0000000e+00 
-1.2768046e-03 -5.6559503e-02 0.0000000e+00 
1.2648430e-03 -5.6737300e-02 0.0000000e+00 
-6.6734904e-03 -5.9670633e-02 0.0000000e+00 
-4.0701668e-03 -5.9825591e-02 0.0000000e+00 
-1.4698022e-03 -5.9995406e-02 0.0000000e+00 
1.1295844e-03 -6.0180290e-02 0.0000000e+00 
-6.9896415e-03 -6.3167153e-02 0.0000000e+00 
-4.3301116e-03 -6.3329960e-02 0.0000000e+00 
-1.6735159e-03 -6.3507228e-02 0.0000000e+00 
9.8209704e-04 -6.3699172e-02 0.0000000e+00 
-7.3134601e-03 -6.6737671e-02 0.0000000e+00 
-4.5992188e-03 -6.6908279e-02 0.0000000e+00 
-1.8878848e-03 -6.7092958e-02 0.0000000e+00 
8.2246446e-04 -6.7291926e-02 0.0000000e+00 
-7.6449177e-03 -7.0380225e-02 0.0000000e+00 
-4.8774375e-03 -7.0558578e-02 0.0000000e+00 
-2.1128351e-03 -7.0750616e-02 0.0000000e+00 
6.5078280e-04 -7.0956562e-02 0.0000000e+00 
-7.9839737e-03 -7.4092884e-02 0.0000000e+00 
-5.1647050e-03 -7.4278915e-02 0.0000000e+00 
-2.3482811e-03 -7.4478253e-02 0.0000000e+00 
4.6716036e-04 -7.4691124e-02 0.0000000e+00 
-8.3305797e-03 -7.7873747e-02 0.0000000e+00 
-5.4609474e-03 -7.8067381e-02 0.0000000e+00 
-2.5941262e-03 -7.8273951e-02 0.0000000e+00 
2.7171726e-04 -7.8493684e-02 0.0000000e+00 
-8.6846736e-03 -8.1720940e-02 0.0000000e+00 
-5.7660804e-03 -8.1922097e-02 0.0000000e+00 
-2.8502630e-03 -8.2135824e-02 0.0000000e+00 
6.4583249e-05 -8.2362350e-02 0.0000000e+00 
-9.0461834e-03 -8.5632622e-02 0.0000000e+00 
-6.0800099e-03 -8.5841213e-02 0.0000000e+00 
-3.1165746e-03 -8.6062014e-02 0.0000000e+00 
-1.5410248e-04 -8.6295256e-02 0.0000000e+00 
-9.4150289e-03 -8.9606980e-02 0.0000000e+00 
-6.4026316e-03 -8.9822910e-02 0.0000000e+00 
-3.3929352e-03 -9.0050695e-02 0.0000000e+00 
-3.8419160e-04 -9.0290570e-02 0.0000000e+00 
-9.7911168e-03 -9.3642229e-02 0.0000000e+00 
-6.7338334e-03 -9.3865397e-02 0.0000000e+00 
-3.6792101e-03 -9.4100071e-02 0.0000000e+00 
-6.2552815e-04 -9.4346488e-02 0.0000000e+00 
-1.0174350e-02 -9.7736614e-02 0.0000000e+00 
-7.0734943e-03 -9.7966911e-02 0.0000000e+00 
-3.9752567e-03 -9.8208374e-02 0.0000000e+00 
-8.7794727e-04 -9.8461238e-02 0.0000000e+00 
-1.0564624e-02 -1.0188841e-01 0.0000000e+00 
-7.4214869e-03 -1.0212572e-01 0.0000000e+00 
-4.2809250e-03 -1.0237387e-01 0.0000000e+00 
-1.1412769e-03 -1.0263308e-01 0.0000000e+00 
-1.0961826e-02 -1.0609591e-01 0.0000000e+00 
-7.7776768e-03 -1.0634012e-01 0.0000000e+00 
-4.5960584e-03 -1.0659484e-01 0.0000000e+00 
-1.4153381e-03 -1.0686029e-01 0.0000000e+00 
-1.1365838e-02 -1.1035745e-01 0.0000000e+00 
-8.1419236e-03 -1.1060845e-01 0.0000000e+00 
-4.9204942e-03 -1.1086962e-01 0.0000000e+00 
-1.6999462e-03 -1.1114120e-01 0.0000000e+00 
-1.1776537e-02 -1.1467140e-01 0.0000000e+00 
-8.5140811e-03 -1.1492905e-01 0.0000000e+00 
-5.2540642e-03 -1.1519655e-01 0.0000000e+00 
-1.9949108e-03 -1.1547415e-01 0.0000000e+00 
-1.2193794e-02 -1.1903613e-01 0.0000000e+00 
-8.8939984e-03 -1.1930031e-01 0.0000000e+00 
-5.5965950e-03 -1.1957402e-01 0.0000000e+00 
-2.3000366e-03 -1.1985752e-01 0.0000000e+00 
-1.2617474e-02 -1.2345008e-01 0.0000000e+00 
-9.2815195e-03 -1.2372064e-01 0.0000000e+00 
-5.9479090e-03 -1.2400044e-01 0.0000000e+00 
-2.6151239e-03 -1.2428972e-01 0.0000000e+00 
-1.3047440e-02 -1.2791168e-01 0.0000000e+00 
-9.6764846e-03 -1.2818850e-01 0.0000000e+00 
-6.3078243e-03 -1.2847425e-01 0.0000000e+00 
-2.9399690e-03 -1.2876918e-01 0.0000000e+00 
-1.3483551e-02 -1.3241941e-01 0.0000000e+00 
-1.0078730e-02 -1.3270234e-01 0.0000000e+00 
-6.6761555e-03 -1.3299393e-01 0.0000000e+00 
-3.2743648e-03 -1.3329439e-01 0.0000000e+00 
-1.3925663e-02 -1.3697177e-01 0.0000000e+00 
-1.0488090e-02 -1.3726069e-01 0.0000000e+00 
-7.0527144e-03 -1.3755796e-01 0.0000000e+00 
-3.6181011e-03 -1.3786382e-01 0.0000000e+00 
-1.4373627e-02 -1.4156730e-01 0.0000000e+00 
-1.0904395e-02 -1.4186206e-01 0.0000000e+00 
-7.4373098e-03 -1.4216488e-01 0.0000000e+00 
-3.9709652e-03 -1.4247601e-01 0.0000000e+00 
-1.4827293e-02 -1.4620456e-01 0.0000000e+00 
-1.1327473e-02 -1.4650501e-01 0.0000000e+00 
-7.8297484e-03 -1.4681325e-01 0.0000000e+00 
-4.3327420e-03 -1.4712952e-01 0.0000000e+00 
-1.5286514e-02 -1.5088214e-01 0.0000000e+00 
-1.1757153e-02 -1.5118814e-01 0.0000000e+00 
-8.2298352e-03 -1.5150166e-01 0.0000000e+00 
-4.7032139e-03 -1.5182293e-01 0.0000000e+00 
-1.5751135e-02 -1.5559866e-01 0.0000000e+00 
-1.2193258e-02 -1.5591006e-01 0.0000000e+00 
-8.6373742e-03 -1.5622872e-01 0.0000000e+00 
-5.0821632e-03 -1.5655487e-01 0.0000000e+00 
-1.6221003e-02 -1.6035277e-01 0.0000000e+00 
-1.2635615e-02 -1.6066943e-01 0.0000000e+00 
-9.0521681e-03 -1.6099309e-01 0.0000000e+00 
-5.4693717e-03 -1.6132397e-01 0.0000000e+00 
-1.6695963e-02 -1.6514314e-01 0.0000000e+00 
-1.3084045e-02 -1.6546491e-01 0.0000000e+00 
-9.4740194e-03 -1.6579343e-01 0.0000000e+00 
-5.8646204e-03 -1.6612891e-01 0.0000000e+00 
-1.7175855e-02 -1.6996847e-01 0.0000000e+00 
-1.3538371e-02 -1.7029521e-01 0.0000000e+00 
-9.9027297e-03 -1.7062844e-01 0.0000000e+00 
-6.2676911e-03 -1.7096839e-01 0.0000000e+00 
-1.7660524e-02 -1.7482750e-01 0.0000000e+00 
-1.3998416e-02 -1.7515906e-01 0.0000000e+00 
-1.0338101e-02 -1.7549687e-01 0.0000000e+00 
-6.6783644e-03 -1.7584115e-01 0.0000000e+00 
-1.8149812e-02 -1.7971898e-01 0.0000000e+00 
-1.4464002e-02 -1.8005522e-01 0.0000000e+00 
-1.0779934e-02 -1.8039746e-01 0.0000000e+00 
-7.0964212e-03 -1.8074594e-01 0.0000000e+00 
-1.8643565e-02 -1.8464170e-01 0.0000000e+00 
-1.4934953e-02 -1.8498247e-01 0.0000000e+00 
-1.1228031e-02 -1.8532901e-01 0.0000000e+00 
-7.5216427e-03 -1.8568154e-01 0.0000000e+00 
-1.9141627e-02 -1.8959448e-01 0.0000000e+00 
-1.5411091e-02 -1.8993962e-01 0.0000000e+00 
-1.1682196e-02 -1.9029032e-01 0.0000000e+00 
-7.9538115e-03 -1.9064678e-01 0.0000000e+00 
-1.9643843e-02 -1.9457614e-01 0.0000000e+00 
-1.5892243e-02 -1.9492553e-01 0.0000000e+00 
-1.2142234e-02 -1.9528024e-01 0.0000000e+00 
-8.3927116e-03 -1.9564050e-01 0.0000000e+00 
-2.0150061e-02 -1.9958557e-01 0.0000000e+00 
-1.6378234e-02 -1.9993905e-01 0.0000000e+00 
-1.2607949e-02 -2.0029764e-01 0.0000000e+00 
-8.8381279e-03 -2.0066156e-01 0.0000000e+00 
-2.0660129e-02 -2.0462164e-01 0.0000000e+00 
-1.6868893e-02 -2.0497908e-01 0.0000000e+00 
-1.3079149e-02 -2.0534142e-01 0.0000000e+00 
-9.2898477e-03 -2.0570887e-01 0.0000000e+00 
-2.1173896e-02 -2.0968329e-01 0.0000000e+00 
-1.7364049e-02 -2.1004454e-01 0.0000000e+00 
-1.3555644e-02 -2.1041049e-01 0.0000000e+00 
-9.7476596e-03 -2.1078134e-01 0.0000000e+00 
-2.1691217e-02 -2.1476946e-01 0.0000000e+00 
-1.7863534e-02 -2.1513439e-01 0.0000000e+00 
-1.4037244e-02 -2.1550382e-01 0.0000000e+00 
-1.0211354e-02 -2.1587794e-01 0.0000000e+00 
-2.2211947e-02 -2.1987913e-01 0.0000000e+00 
-1.8367182e-02 -2.2024760e-01 0.0000000e+00 
-1.4523765e-02 -2.2062037e-01 0.0000000e+00 
-1.0680724e-02 -2.2099764e-01 0.0000000e+00 
-2.2735940e-02 -2.2501130e-01 0.0000000e+00 
-1.8874830e-02 -2.2538317e-01 0.0000000e+00 
-1.5015021e-02 -2.2575916e-01 0.0000000e+00 
-1.1155568e-02 -2.2613946e-01 0.0000000e+00 
-2.3263056e-02 -2.3016500e-01 0.0000000e+00 
-1.9386316e-02 -2.3054014e-01 0.0000000e+00 
-1.5510832e-02 -2.3091923e-01 0.0000000e+00 
-1.1635684e-02 -2.3130242e-01 0.0000000e+00 
-2.3793151e-02 -2.3533928e-01 0.0000000e+00 
-1.9901480e-02 -2.3571757e-01 0.0000000e+00 
-1.6011021e-02 -2.3609961e-01 0.0000000e+00 
-1.2120877e-02 -2.3648559e-01 0.0000000e+00 
-2.4326089e-02 -2.4053323e-01 0.0000000e+00 
-2.0420167e-02 -2.4091453e-01 0.0000000e+00 
-1.6515411e-02 -2.4129941e-01 0.0000000e+00 
-1.2610950e-02 -2.4168805e-01 0.0000000e+00 
-2.4861735e-02 -2.4574593e-01 0.0000000e+00 
-2.0942221e-02 -2.4613012e-01 0.0000000e+00 
-1.7023829e-02 -2.4651772e-01 0.0000000e+00 
-1.3105714e-02 -2.4690891e-01 0.0000000e+00 
-2.5399959e-02 -2.5097653e-01 0.0000000e+00 
-2.1467494e-02 -2.5136348e-01 0.0000000e+00 
-1.7536107e-02 -2.5175369e-01 0.0000000e+00 
-1.3604979e-02 -2.5214731e-01 0.0000000e+00 
-2.5940631e-02 -2.5622418e-01 0.0000000e+00 
-2.1995837e-02 -2.5661377e-01 0.0000000e+00 
-1.8052079e-02 -2.5700646e-01 0.0000000e+00 
-1.4108561e-02 -2.5740240e-01 0.0000000e+00 
-2.6483627e-02 -2.6148805e-01 0.0000000e+00 
-2.2527106e-02 -2.6188017e-01 0.0000000e+00 
-1.8571580e-02 -2.6227523e-01 0.0000000e+00 
-1.4616277e-02 -2.6267338e-01 0.0000000e+00 
-2.7028824e-02 -2.6676735e-01 0.0000000e+00 
-2.3061162e-02 -2.6716188e-01 0.0000000e+00 
-1.9094454e-02 -2.6755920e-01 0.0000000e+00 
-1.5127951e-02 -2.6795946e-01 0.0000000e+00 
-2.7576102e-02 -2.7206131e-01 0.0000000e+00 
-2.3597865e-02 -2.7245813e-01 0.0000000e+00 
-1.9620543e-02 -2.7285760e-01 0.0000000e+00 
-1.5643410e-02 -2.7325986e-01 0.0000000e+00 
-2.8125346e-02 -2.7736918e-01 0.0000000e+00 
-2.4137084e-02 -2.7776819e-01 0.0000000e+00 
-2.0149697e-02 -2.7816970e-01 0.0000000e+00 
-1.6162483e-02 -2.7857386e-01 0.0000000e+00 
-2.8676444e-02 -2.8269023e-01 0.0000000e+00 
-2.4678687e-02 -2.8309131e-01 0.0000000e+00 
-2.0681767e-02 -2.8349477e-01 0.0000000e+00 
-1.6685005e-02 -2.8390073e-01 0.0000000e+00 
-2.9229285e-02 -2.8802376e-01 0.0000000e+00 
-2.5222547e-02 -2.8842682e-01 0.0000000e+00 
-2.1216608e-02 -2.8883211e-01 0.0000000e+00 
-1.7210813e-02 -2.8923978e-01 0.0000000e+00 
-2.9783763e-02 -2.9336910e-01 0.0000000e+00 
-2.5768540e-02 -2.9377402e-01 0.0000000e+00 
-2.1754081e-02 -2.9418107e-01 0.0000000e+00 
-1.7739751e-02 -2.9459035e-01 0.0000000e+00 
-3.0339775e-02 -2.9872558e-01 0.0000000e+00 
-2.6316549e-02 -2.9913228e-01 0.0000000e+00 
-2.2294049e-02 -2.9954097e-01 0.0000000e+00 
-1.8271664e-02 -2.9995178e-01 0.0000000e+00 
-3.0897227e-02 -3.0409258e-01 0.0000000e+00 
-2.6866457e-02 -3.0450096e-01 0.0000000e+00 
-2.2836378e-02 -3.0491120e-01 0.0000000e+00 
-1.8806402e-02 -3.0532345e-01 0.0000000e+00 
-3.1456022e-02 -3.0946949e-01 0.0000000e+00 
-2.7418152e-02 -3.0987945e-01 0.0000000e+00 
-2.3380940e-02 -3.1029116e-01 0.0000000e+00 
-1.9343819e-02 -3.1070476e-01 0.0000000e+00 
-3.2016068e-02 -3.1485572e-01 0.0000000e+00 
-2.7971528e-02 -3.1526717e-01 0.0000000e+00 
-2.3927612e-02 -3.1568027e-01 0.0000000e+00 
-1.9883775e-02 -3.1609513e-01 0.0000000e+00 
-3.2577278e-02 -3.2025071e-01 0.0000000e+00 
-2.8526477e-02 -3.2066356e-01 0.0000000e+00 
-2.4476272e-02 -3.2107795e-01 0.0000000e+00 
-2.0426134e-02 -3.2149401e-01 0.0000000e+00 
-3.3139560e-02 -3.2565390e-01 0.0000000e+00 
-2.9082900e-02 -3.2606807e-01 0.0000000e+00 
-2.5026803e-02 -3.2648368e-01 0.0000000e+00 
-2.0970764e-02 -3.2690085e-01 0.0000000e+00 
-3.3702833e-02 -3.3106478e-01 0.0000000e+00 
-2.9640697e-02 -3.3148018e-01 0.0000000e+00 
-2.5579094e-02 -3.3189694e-01 0.0000000e+00 
-2.1517538e-02 -3.3231515e-01 0.0000000e+00 
-3.4267019e-02 -3.3648283e-01 0.0000000e+00 
-3.0199774e-02 -3.3689940e-01 0.0000000e+00 
-2.6133033e-02 -3.3731722e-01 0.0000000e+00 
-2.2066330e-02 -3.3773640e-01 0.0000000e+00 
-3.4832041e-02 -3.4190758e-01 0.0000000e+00 
-3.0760041e-02 -3.4232523e-01 0.0000000e+00 
-2.6688516e-02 -3.4274404e-01 0.0000000e+00 
-2.2617021e-02 -3.4316412e-01 0.0000000e+00 
-3.5397828e-02 -3.4733855e-01 0.0000000e+00 
-3.1321410e-02 -3.4775721e-01 0.0000000e+00 
-2.7245441e-02 -3.4817695e-01 0.0000000e+00 
-2.3169493e-02 -3.4859786e-01 0.0000000e+00 
-3.5964310e-02 -3.5277530e-01 0.0000000e+00 
-3.1883799e-02 -3.5319490e-01 0.0000000e+00 
-2.7803711e-02 -3.5361550e-01 0.0000000e+00 
-2.3723635e-02 -3.5403719e-01 0.0000000e+00 
-3.6531421e-02 -3.5821741e-01 0.0000000e+00 
-3.2447127e-02 -3.5863788e-01 0.0000000e+00 
-2.8363230e-02 -3.5905927e-01 0.0000000e+00 
-2.4279338e-02 -3.5948167e-01 0.0000000e+00 
-3.7099099e-02 -3.6366446e-01 0.0000000e+00 
-3.3011318e-02 -3.6408573e-01 0.0000000e+00 
-2.8923910e-02 -3.6450786e-01 0.0000000e+00 
-2.4836499e-02 -3.6493091e-01 0.0000000e+00 
-3.7667282e-02 -3.6911606e-01 0.0000000e+00 
-3.3576299e-02 -3.6953808e-01 0.0000000e+00 
-2.9485662e-02 -3.6996088e-01 0.0000000e+00 
-2.5395018e-02 -3.7038454e-01 0.0000000e+00 
-3.8235920e-02 -3.7457184e-01 0.0000000e+00 
-3.4142000e-02 -3.7499455e-01 0.0000000e+00 
-3.0048405e-02 -3.7541797e-01 0.0000000e+00 
-2.5954797e-02 -3.7584217e-01 0.0000000e+00 
-3.8804957e-02 -3.8003145e-01 0.0000000e+00 
-3.4708357e-02 -3.8045479e-01 0.0000000e+00 
-3.0612060e-02 -3.8087877e-01 0.0000000e+00 
-2.6515743e-02 -3.8130347e-01 0.0000000e+00 
-3.9374345e-02 -3.8549455e-01 0.0000000e+00 
-3.5275307e-02 -3.8591847e-01 0.0000000e+00 
-3.1176550e-02 -3.8634297e-01 0.0000000e+00 
-2.7077770e-02 -3.8676812e-01 0.0000000e+00 
-3.9944037e-02 -3.9096083e-01 0.0000000e+00 
-3.5842790e-02 -3.9138526e-01 0.0000000e+00 
-3.1741805e-02 -3.9181023e-01 0.0000000e+00 
-2.7640792e-02 -3.9223579e-01 0.0000000e+00 
-4.0513984e-02 -3.9642997e-01 0.0000000e+00 
-3.6410749e-02 -3.9685488e-01 0.0000000e+00 
-3.2307756e-02 -3.9728027e-01 0.0000000e+00 
-2.8204732e-02 -3.9770619e-01 0.0000000e+00 
-4.1084144e-02 -4.0190169e-01 0.0000000e+00 
-3.6979129e-02 -4.0232703e-01 0.0000000e+00 
-3.2874338e-02 -4.0275279e-01 0.0000000e+00 
-2.8769511e-02 -4.0317903e-01 0.0000000e+00 
-4.1654480e-02 -4.0737571e-01 0.0000000e+00 
-3.7547881e-02 -4.0780144e-01 0.0000000e+00 
-3.3441488e-02 -4.0822754e-01 0.0000000e+00 
-2.9335056e-02 -4.0865406e-01 0.0000000e+00 
-4.2224955e-02 -4.1285178e-01 0.0000000e+00 
-3.8116957e-02 -4.1327785e-01 0.0000000e+00 
-3.4009147e-02 -4.1370425e-01 0.0000000e+00 
-2.9901297e-02 -4.1413102e-01 0.0000000e+00 
-4.2795535e-02 -4.1832966e-01 0.0000000e+00 
-3.8686311e-02 -4.1875603e-01 0.0000000e+00 
-3.4577260e-02 -4.1918269e-01 0.0000000e+00 
-3.0468166e-02 -4.1960968e-01 0.0000000e+00 
-4.3366190e-02 -4.2380911e-01 0.0000000e+00 
-3.9255904e-02 -4.2423575e-01 0.0000000e+00 
-3.5145775e-02 -4.2466264e-01 0.0000000e+00 
-3.1035600e-02 -4.2508981e-01 0.0000000e+00 
-4.3936892e-02 -4.2928993e-01 0.0000000e+00 
-3.9825696e-02 -4.2971680e-01 0.0000000e+00 
-3.5714641e-02 -4.3014388e-01 0.0000000e+00 
-3.1603540e-02 -4.3057120e-01 0.0000000e+00 
-4.4507615e-02 -4.3477190e-01 0.0000000e+00 
-4.0395650e-02 -4.3519898e-01 0.0000000e+00 
-3.6283813e-02 -4.3562622e-01 0.0000000e+00 
-3.2171928e-02 -4.3605367e-01 0.0000000e+00 
-4.5078335e-02 -4.4025486e-01 0.0000000e+00 
-4.0965734e-02 -4.4068210e-01 0.0000000e+00 
-3.6853246e-02 -4.4110948e-01 0.0000000e+00 
-3.2740711e-02 -4.4153703e-01 0.0000000e+00 
-4.5649032e-02 -4.4573862e-01 0.0000000e+00 
-4.1535916e-02 -4.4616600e-01 0.0000000e+00 
-3.7422902e-02 -4.4659349e-01 0.0000000e+00 
-3.3309839e-02 -4.4702112e-01 0.0000000e+00 
-4.6219685e-02 -4.5122302e-01 0.0000000e+00 
-4.2106169e-02 -4.5165051e-01 0.0000000e+00 
-3.7992741e-02 -4.5207809e-01 0.0000000e+00 
-3.3879266e-02 -4.5250578e-01 0.0000000e+00 