# vtk DataFile Version 4.0
vtk output
ASCII
DATASET UNSTRUCTURED_GRID
POINTS 604 float
5.5000000e+00 5.9700000e+00 0.0000000e+00 
5.5000000e+00 5.9900000e+00 0.0000000e+00 
5.5266667e+00 5.9700000e+00 0.0000000e+00 
5.5266667e+00 5.9900000e+00 0.0000000e+00 
5.5000000e+00 6.0100000e+00 0.0000000e+00 
5.5266667e+00 6.0100000e+00 0.0000000e+00 
5.5533333e+00 5.9700000e+00 0.0000000e+00 
5.5533333e+00 5.9900000e+00 0.0000000e+00 
5.5000000e+00 6.0300000e+00 0.0000000e+00 
5.5266667e+00 6.0300000e+00 0.0000000e+00 
5.5533333e+00 6.0100000e+00 0.0000000e+00 
5.5800000e+00 5.9700000e+00 0.0000000e+00 
5.5533333e+00 6.0300000e+00 0.0000000e+00 
5.5800000e+00 5.9900000e+00 0.0000000e+00 
5.5800000e+00 6.0100000e+00 0.0000000e+00 
5.5800000e+00 6.0300000e+00 0.0000000e+00 
5.6066667e+00 5.9700000e+00 0.0000000e+00 
5.6066667e+00 5.9900000e+00 0.0000000e+00 
5.6066667e+00 6.0100000e+00 0.0000000e+00 
5.6066667e+00 6.0300000e+00 0.0000000e+00 
5.6333333e+00 5.9700000e+00 0.0000000e+00 
5.6333333e+00 5.9900000e+00 0.0000000e+00 
5.6333333e+00 6.0100000e+00 0.0000000e+00 
5.6333333e+00 6.0300000e+00 0.0000000e+00 
5.6600000e+00 5.9700000e+00 0.0000000e+00 
5.6600000e+00 5.9900000e+00 0.0000000e+00 
5.6600000e+00 6.0100000e+00 0.0000000e+00 
5.6600000e+00 6.0300000e+00 0.0000000e+00 
5.6866667e+00 5.9700000e+00 0.0000000e+00 
5.6866667e+00 5.9900000e+00 0.0000000e+00 
5.6866667e+00 6.0100000e+00 0.0000000e+00 
5.6866667e+00 6.0300000e+00 0.0000000e+00 
5.7133333e+00 5.9700000e+00 0.0000000e+00 
5.7133333e+00 5.9900000e+00 0.0000000e+00 
5.7133333e+00 6.0100000e+00 0.0000000e+00 
5.7133333e+00 6.0300000e+00 0.0000000e+00 
5.7400000e+00 5.9700000e+00 0.0000000e+00 
5.7400000e+00 5.9900000e+00 0.0000000e+00 
5.7400000e+00 6.0100000e+00 0.0000000e+00 
5.7400000e+00 6.0300000e+00 0.0000000e+00 
5.7666667e+00 5.9700000e+00 0.0000000e+00 
5.7666667e+00 5.9900000e+00 0.0000000e+00 
5.7666667e+00 6.0100000e+00 0.0000000e+00 
5.7666667e+00 6.0300000e+00 0.0000000e+00 
5.7933333e+00 5.9700000e+00 0.0000000e+00 
5.7933333e+00 5.9900000e+00 0.0000000e+00 
5.7933333e+00 6.0100000e+00 0.0000000e+00 
5.7933333e+00 6.0300000e+00 0.0000000e+00 
5.8200000e+00 5.9700000e+00 0.0000000e+00 
5.8200000e+00 5.9900000e+00 0.0000000e+00 
5.8200000e+00 6.0100000e+00 0.0000000e+00 
5.8200000e+00 6.0300000e+00 0.0000000e+00 
5.8466667e+00 5.9700000e+00 0.0000000e+00 
5.8466667e+00 5.9900000e+00 0.0000000e+00 
5.8466667e+00 6.0100000e+00 0.0000000e+00 
5.8466667e+00 6.0300000e+00 0.0000000e+00 
5.8733333e+00 5.9700000e+00 0.0000000e+00 
5.8733333e+00 5.9900000e+00 0.0000000e+00 
5.8733333e+00 6.0100000e+00 0.0000000e+00 
5.8733333e+00 6.0300000e+00 0.0000000e+00 
5.9000000e+00 5.9700000e+00 0.0000000e+00 
5.9000000e+00 5.9900000e+00 0.0000000e+00 
5.9000000e+00 6.0100000e+00 0.0000000e+00 
5.9000000e+00 6.0300000e+00 0.0000000e+00 
5.9266667e+00 5.9700000e+00 0.0000000e+00 
5.9266667e+00 5.9900000e+00 0.0000000e+00 
5.9266667e+00 6.0100000e+00 0.0000000e+00 
5.9266667e+00 6.0300000e+00 0.0000000e+00 
5.9533333e+00 5.9700000e+00 0.0000000e+00 
5.9533333e+00 5.9900000e+00 0.0000000e+00 
5.9533333e+00 6.0100000e+00 0.0000000e+00 
5.9533333e+00 6.0300000e+00 0.0000000e+00 
5.9800000e+00 5.9700000e+00 0.0000000e+00 
5.9800000e+00 5.9900000e+00 0.0000000e+00 
5.9800000e+00 6.0100000e+00 0.0000000e+00 
5.9800000e+00 6.0300000e+00 0.0000000e+00 
6.0066667e+00 5.9700000e+00 0.0000000e+00 
6.0066667e+00 5.9900000e+00 0.0000000e+00 
6.0066667e+00 6.0100000e+00 0.0000000e+00 
6.0066667e+00 6.0300000e+00 0.0000000e+00 
6.0333333e+00 5.9700000e+00 0.0000000e+00 
6.0333333e+00 5.9900000e+00 0.0000000e+00 
6.0333333e+00 6.0100000e+00 0.0000000e+00 
6.0333333e+00 6.0300000e+00 0.0000000e+00 
6.0600000e+00 5.9700000e+00 0.0000000e+00 
6.0600000e+00 5.9900000e+00 0.0000000e+00 
6.0600000e+00 6.0100000e+00 0.0000000e+00 
6.0600000e+00 6.0300000e+00 0.0000000e+00 
6.0866667e+00 5.9700000e+00 0.0000000e+00 
6.0866667e+00 5.9900000e+00 0.0000000e+00 
6.0866667e+00 6.0100000e+00 0.0000000e+00 
6.0866667e+00 6.0300000e+00 0.0000000e+00 
6.1133333e+00 5.9700000e+00 0.0000000e+00 
6.1133333e+00 5.9900000e+00 0.0000000e+00 
6.1133333e+00 6.0100000e+00 0.0000000e+00 
6.1133333e+00 6.0300000e+00 0.0000000e+00 
6.1400000e+00 5.9700000e+00 0.0000000e+00 
6.1400000e+00 5.9900000e+00 0.0000000e+00 
6.1400000e+00 6.0100000e+00 0.0000000e+00 
6.1400000e+00 6.0300000e+00 0.0000000e+00 
6.1666667e+00 5.9700000e+00 0.0000000e+00 
6.1666667e+00 5.9900000e+00 0.0000000e+00 
6.1666667e+00 6.0100000e+00 0.0000000e+00 
6.1666667e+00 6.0300000e+00 0.0000000e+00 
6.1933333e+00 5.9700000e+00 0.0000000e+00 
6.1933333e+00 5.9900000e+00 0.0000000e+00 
6.1933333e+00 6.0100000e+00 0.0000000e+00 
6.1933333e+00 6.0300000e+00 0.0000000e+00 
6.2200000e+00 5.9700000e+00 0.0000000e+00 
6.2200000e+00 5.9900000e+00 0.0000000e+00 
6.2200000e+00 6.0100000e+00 0.0000000e+00 
6.2200000e+00 6.0300000e+00 0.0000000e+00 
6.2466667e+00 5.9700000e+00 0.0000000e+00 
6.2466667e+00 5.9900000e+00 0.0000000e+00 
6.2466667e+00 6.0100000e+00 0.0000000e+00 
6.2466667e+00 6.0300000e+00 0.0000000e+00 
6.2733333e+00 5.9700000e+00 0.0000000e+00 
6.2733333e+00 5.9900000e+00 0.0000000e+00 
6.2733333e+00 6.0100000e+00 0.0000000e+00 
6.2733333e+00 6.0300000e+00 0.0000000e+00 
6.3000000e+00 5.9700000e+00 0.0000000e+00 
6.3000000e+00 5.9900000e+00 0.0000000e+00 
6.3000000e+00 6.0100000e+00 0.0000000e+00 
6.3000000e+00 6.0300000e+00 0.0000000e+00 
6.3266667e+00 5.9700000e+00 0.0000000e+00 
6.3266667e+00 5.9900000e+00 0.0000000e+00 
6.3266667e+00 6.0100000e+00 0.0000000e+00 
6.3266667e+00 6.0300000e+00 0.0000000e+00 
6.3533333e+00 5.9700000e+00 0.0000000e+00 
6.3533333e+00 5.9900000e+00 0.0000000e+00 
6.3533333e+00 6.0100000e+00 0.0000000e+00 
6.3533333e+00 6.0300000e+00 0.0000000e+00 
6.3800000e+00 5.9700000e+00 0.0000000e+00 
6.3800000e+00 5.9900000e+00 0.0000000e+00 
6.3800000e+00 6.0100000e+00 0.0000000e+00 
6.3800000e+00 6.0300000e+00 0.0000000e+00 
6.4066667e+00 5.9700000e+00 0.0000000e+00 
6.4066667e+00 5.9900000e+00 0.0000000e+00 
6.4066667e+00 6.0100000e+00 0.0000000e+00 
6.4066667e+00 6.0300000e+00 0.0000000e+00 
6.4333333e+00 5.9700000e+00 0.0000000e+00 
6.4333333e+00 5.9900000e+00 0.0000000e+00 
6.4333333e+00 6.0100000e+00 0.0000000e+00 
6.4333333e+00 6.0300000e+00 0.0000000e+00 
6.4600000e+00 5.9700000e+00 0.0000000e+00 
6.4600000e+00 5.9900000e+00 0.0000000e+00 
6.4600000e+00 6.0100000e+00 0.0000000e+00 
6.4600000e+00 6.0300000e+00 0.0000000e+00 
6.4866667e+00 5.9700000e+00 0.0000000e+00 
6.4866667e+00 5.9900000e+00 0.0000000e+00 
6.4866667e+00 6.0100000e+00 0.0000000e+00 
6.4866667e+00 6.0300000e+00 0.0000000e+00 
6.5133333e+00 5.9700000e+00 0.0000000e+00 
6.5133333e+00 5.9900000e+00 0.0000000e+00 
6.5133333e+00 6.0100000e+00 0.0000000e+00 
6.5133333e+00 6.0300000e+00 0.0000000e+00 
6.5400000e+00 5.9700000e+00 0.0000000e+00 
6.5400000e+00 5.9900000e+00 0.0000000e+00 
6.5400000e+00 6.0100000e+00 0.0000000e+00 
6.5400000e+00 6.0300000e+00 0.0000000e+00 
6.5666667e+00 5.9700000e+00 0.0000000e+00 
6.5666667e+00 5.9900000e+00 0.0000000e+00 
6.5666667e+00 6.0100000e+00 0.0000000e+00 
6.5666667e+00 6.0300000e+00 0.0000000e+00 
6.5933333e+00 5.9700000e+00 0.0000000e+00 
6.5933333e+00 5.9900000e+00 0.0000000e+00 
6.5933333e+00 6.0100000e+00 0.0000000e+00 
6.5933333e+00 6.0300000e+00 0.0000000e+00 
6.6200000e+00 5.9700000e+00 0.0000000e+00 
6.6200000e+00 5.9900000e+00 0.0000000e+00 
6.6200000e+00 6.0100000e+00 0.0000000e+00 
6.6200000e+00 6.0300000e+00 0.0000000e+00 
6.6466667e+00 5.9700000e+00 0.0000000e+00 
6.6466667e+00 5.9900000e+00 0.0000000e+00 
6.6466667e+00 6.0100000e+00 0.0000000e+00 
6.6466667e+00 6.0300000e+00 0.0000000e+00 
6.6733333e+00 5.9700000e+00 0.0000000e+00 
6.6733333e+00 5.9900000e+00 0.0000000e+00 
6.6733333e+00 6.0100000e+00 0.0000000e+00 
6.6733333e+00 6.0300000e+00 0.0000000e+00 
6.7000000e+00 5.9700000e+00 0.0000000e+00 
6.7000000e+00 5.9900000e+00 0.0000000e+00 
6.7000000e+00 6.0100000e+00 0.0000000e+00 
6.7000000e+00 6.0300000e+00 0.0000000e+00 
6.7266667e+00 5.9700000e+00 0.0000000e+00 
6.7266667e+00 5.9900000e+00 0.0000000e+00 
6.7266667e+00 6.0100000e+00 0.0000000e+00 
6.7266667e+00 6.0300000e+00 0.0000000e+00 
6.7533333e+00 5.9700000e+00 0.0000000e+00 
6.7533333e+00 5.9900000e+00 0.0000000e+00 
6.7533333e+00 6.0100000e+00 0.0000000e+00 
6.7533333e+00 6.0300000e+00 0.0000000e+00 
6.7800000e+00 5.9700000e+00 0.0000000e+00 
6.7800000e+00 5.9900000e+00 0.0000000e+00 
6.7800000e+00 6.0100000e+00 0.0000000e+00 
6.7800000e+00 6.0300000e+00 0.0000000e+00 
6.8066667e+00 5.9700000e+00 0.0000000e+00 
6.8066667e+00 5.9900000e+00 0.0000000e+00 
6.8066667e+00 6.0100000e+00 0.0000000e+00 
6.8066667e+00 6.0300000e+00 0.0000000e+00 
6.8333333e+00 5.9700000e+00 0.0000000e+00 
6.8333333e+00 5.9900000e+00 0.0000000e+00 
6.8333333e+00 6.0100000e+00 0.0000000e+00 
6.8333333e+00 6.0300000e+00 0.0000000e+00 
6.8600000e+00 5.9700000e+00 0.0000000e+00 
6.8600000e+00 5.9900000e+00 0.0000000e+00 
6.8600000e+00 6.0100000e+00 0.0000000e+00 
6.8600000e+00 6.0300000e+00 0.0000000e+00 
6.8866667e+00 5.9700000e+00 0.0000000e+00 
6.8866667e+00 5.9900000e+00 0.0000000e+00 
6.8866667e+00 6.0100000e+00 0.0000000e+00 
6.8866667e+00 6.0300000e+00 0.0000000e+00 
6.9133333e+00 5.9700000e+00 0.0000000e+00 
6.9133333e+00 5.9900000e+00 0.0000000e+00 
6.9133333e+00 6.0100000e+00 0.0000000e+00 
6.9133333e+00 6.0300000e+00 0.0000000e+00 
6.9400000e+00 5.9700000e+00 0.0000000e+00 
6.9400000e+00 5.9900000e+00 0.0000000e+00 
6.9400000e+00 6.0100000e+00 0.0000000e+00 
6.9400000e+00 6.0300000e+00 0.0000000e+00 
6.9666667e+00 5.9700000e+00 0.0000000e+00 
6.9666667e+00 5.9900000e+00 0.0000000e+00 
6.9666667e+00 6.0100000e+00 0.0000000e+00 
6.9666667e+00 6.0300000e+00 0.0000000e+00 
6.9933333e+00 5.9700000e+00 0.0000000e+00 
6.9933333e+00 5.9900000e+00 0.0000000e+00 
6.9933333e+00 6.0100000e+00 0.0000000e+00 
6.9933333e+00 6.0300000e+00 0.0000000e+00 
7.0200000e+00 5.9700000e+00 0.0000000e+00 
7.0200000e+00 5.9900000e+00 0.0000000e+00 
[...]
POINT_DATA 604
FIELD FieldData 2
DISPLACEMENT 3 604  float
0.0000000e+00 0.0000000e+00 0.0000000e+00 
0.0000000e+00 0.0000000e+00 0.0000000e+00 
-6.2373525e-08 1.6577309e-08 0.0000000e+00 
1.6678496e-08 -2.3409344e-08 0.0000000e+00 
0.0000000e+00 0.0000000e+00 0.0000000e+00 
1.1243048e-07 -8.5011822e-08 0.0000000e+00 
-1.4209406e-07 -1.7819177e-07 0.0000000e+00 
5.7021862e-08 -2.1925662e-07 0.0000000e+00 
0.0000000e+00 0.0000000e+00 0.0000000e+00 
2.3539793e-07 -1.8823540e-07 0.0000000e+00 
2.6076830e-07 -2.9263587e-07 0.0000000e+00 
-2.1339783e-07 -5.1943806e-07 0.0000000e+00 
4.6625548e-07 -3.8715827e-07 0.0000000e+00 
9.4614287e-08 -5.6050115e-07 0.0000000e+00 
4.0204583e-07 -6.2871939e-07 0.0000000e+00 
7.0831115e-07 -7.2480538e-07 0.0000000e+00 
-2.8281938e-07 -9.9902637e-07 0.0000000e+00 
1.2960470e-07 -1.0393515e-06 0.0000000e+00 
5.4209071e-07 -1.1072747e-06 0.0000000e+00 
9.5392542e-07 -1.2027974e-06 0.0000000e+00 
-3.5342910e-07 -1.6184816e-06 0.0000000e+00 
1.6440705e-07 -1.6586072e-06 0.0000000e+00 
6.8239082e-07 -1.7264600e-06 0.0000000e+00 
1.1999471e-06 -1.8220576e-06 0.0000000e+00 
-4.2475339e-07 -2.3789080e-06 0.0000000e+00 
1.9909541e-07 -2.4189802e-06 0.0000000e+00 
8.2302219e-07 -2.4868782e-06 0.0000000e+00 
1.4465675e-06 -2.5826237e-06 0.0000000e+00 
-4.9663133e-07 -3.2812977e-06 0.0000000e+00 
2.3367387e-07 -3.3211203e-06 0.0000000e+00 
9.6389341e-07 -3.3889154e-06 0.0000000e+00 
1.6936858e-06 -3.4845870e-06 0.0000000e+00 
-5.6873158e-07 -4.3254401e-06 0.0000000e+00 
2.6819476e-07 -4.3652814e-06 0.0000000e+00 
1.1049724e-06 -4.4330959e-06 0.0000000e+00 
1.9413624e-06 -4.5288945e-06 0.0000000e+00 
-6.4110366e-07 -5.5121753e-06 0.0000000e+00 
3.0278739e-07 -5.5518453e-06 0.0000000e+00 
1.2463205e-06 -5.6196093e-06 0.0000000e+00 
2.1893323e-06 -5.7153602e-06 0.0000000e+00 
-7.1331135e-07 -6.8411319e-06 0.0000000e+00 
3.3750629e-07 -6.8808794e-06 0.0000000e+00 
1.3879434e-06 -6.9487046e-06 0.0000000e+00 
2.4378608e-06 -7.0445901e-06 0.0000000e+00 
-7.8552592e-07 -8.3128670e-06 0.0000000e+00 
3.7253269e-07 -8.3526081e-06 0.0000000e+00 
1.5299406e-06 -8.4204644e-06 0.0000000e+00 
2.6866877e-06 -8.5163476e-06 0.0000000e+00 
-8.5716272e-07 -9.9271854e-06 0.0000000e+00 
4.0792508e-07 -9.9670682e-06 0.0000000e+00 
1.6723260e-06 -1.0035057e-05 0.0000000e+00 
2.9360992e-06 -1.0131080e-05 0.0000000e+00 
-9.2841103e-07 -1.1684178e-05 0.0000000e+00 
4.4391751e-07 -1.1724278e-05 0.0000000e+00 
1.8152430e-06 -1.1792428e-05 0.0000000e+00 
3.1857496e-06 -1.1888581e-05 0.0000000e+00 
-9.9854168e-07 -1.3583816e-05 0.0000000e+00 
4.8057053e-07 -1.3624147e-05 0.0000000e+00 
1.9586757e-06 -1.3692495e-05 0.0000000e+00 
3.4360808e-06 -1.3788792e-05 0.0000000e+00 
-1.0677319e-06 -1.5625418e-05 0.0000000e+00 
5.1819575e-07 -1.5666286e-05 0.0000000e+00 
2.1028390e-06 -1.5735171e-05 0.0000000e+00 
3.6866398e-06 -1.5831822e-05 0.0000000e+00 
-1.1353708e-06 -1.7808754e-05 0.0000000e+00 
5.5716383e-07 -1.7850521e-05 0.0000000e+00 
2.2479478e-06 -1.7919977e-05 0.0000000e+00 
3.9376946e-06 -1.8017238e-05 0.0000000e+00 
-1.2006715e-06 -2.0134272e-05 0.0000000e+00 
5.9753309e-07 -2.0176413e-05 0.0000000e+00 
2.3939175e-06 -2.0246322e-05 0.0000000e+00 
4.1894393e-06 -2.0343644e-05 0.0000000e+00 
-1.2637288e-06 -2.2599230e-05 0.0000000e+00 
6.3975275e-07 -2.2642855e-05 0.0000000e+00 
2.5409659e-06 -2.2713667e-05 0.0000000e+00 
4.4412104e-06 -2.2811930e-05 0.0000000e+00 
-1.3234776e-06 -2.5205051e-05 0.0000000e+00 
6.8395541e-07 -2.5249185e-05 0.0000000e+00 
2.6889948e-06 -2.5320579e-05 0.0000000e+00 
4.6932975e-06 -2.5418792e-05 0.0000000e+00 
-1.3797703e-06 -2.7947284e-05 0.0000000e+00 
7.3056322e-07 -2.7993482e-05 0.0000000e+00 
2.8381017e-06 -2.8066058e-05 0.0000000e+00 
4.9450095e-06 -2.8165426e-05 0.0000000e+00 
-1.4316351e-06 -3.0827625e-05 0.0000000e+00 
7.7975576e-07 -3.0874514e-05 0.0000000e+00 
2.9881154e-06 -3.0947777e-05 0.0000000e+00 
5.1961662e-06 -3.1046904e-05 0.0000000e+00 
-1.4785652e-06 -3.3839820e-05 0.0000000e+00 
8.3189264e-07 -3.3889270e-05 0.0000000e+00 
3.1389714e-06 -3.3963890e-05 0.0000000e+00 
5.4459998e-06 -3.4064215e-05 0.0000000e+00 
-1.5197084e-06 -3.6985114e-05 0.0000000e+00 
8.8721114e-07 -3.7035490e-05 0.0000000e+00 
3.2904125e-06 -3.7110868e-05 0.0000000e+00 
5.6939943e-06 -3.7210680e-05 0.0000000e+00 
-1.5542306e-06 -4.0255371e-05 0.0000000e+00 
9.4606064e-07 -4.0308795e-05 0.0000000e+00 
3.4422569e-06 -4.0385672e-05 0.0000000e+00 
5.9392377e-06 -4.0486607e-05 0.0000000e+00 
-1.5812282e-06 -4.3650876e-05 0.0000000e+00 
1.0087388e-06 -4.3705532e-05 0.0000000e+00 
3.5941611e-06 -4.3783177e-05 0.0000000e+00 
6.1808702e-06 -4.3883246e-05 0.0000000e+00 
-1.5995370e-06 -4.7161495e-05 0.0000000e+00 
1.0755367e-06 -4.7219585e-05 0.0000000e+00 
3.7457763e-06 -4.7298752e-05 0.0000000e+00 
6.4179010e-06 -4.7399657e-05 0.0000000e+00 
-1.6084552e-06 -5.0785810e-05 0.0000000e+00 
1.1468115e-06 -5.0845494e-05 0.0000000e+00 
3.8966919e-06 -5.0925415e-05 0.0000000e+00 
6.6490246e-06 -5.1025030e-05 0.0000000e+00 
-1.6065474e-06 -5.4511867e-05 0.0000000e+00 
1.2227575e-06 -5.4575193e-05 0.0000000e+00 
4.0464476e-06 -5.4656555e-05 0.0000000e+00 
6.8732050e-06 -5.4756586e-05 0.0000000e+00 
-1.5932488e-06 -5.8335767e-05 0.0000000e+00 
1.3037010e-06 -5.8401066e-05 0.0000000e+00 
4.1945822e-06 -5.8483019e-05 0.0000000e+00 
7.0891081e-06 -5.8581345e-05 0.0000000e+00 
-1.5670073e-06 -6.2243940e-05 0.0000000e+00 
1.3897180e-06 -6.2312939e-05 0.0000000e+00 
4.3405114e-06 -6.2396393e-05 0.0000000e+00 
7.2959736e-06 -6.2494521e-05 0.0000000e+00 
-1.5275687e-06 -6.6228265e-05 0.0000000e+00 
1.4815694e-06 -6.6300835e-05 0.0000000e+00 
4.4844457e-06 -6.6385770e-05 0.0000000e+00 
7.4921925e-06 -6.6483375e-05 0.0000000e+00 
-1.4744084e-06 -7.0279126e-05 0.0000000e+00 
1.5787864e-06 -7.0354065e-05 0.0000000e+00 
4.6253645e-06 -7.0439406e-05 0.0000000e+00 
7.6769766e-06 -7.0534794e-05 0.0000000e+00 
-1.4067460e-06 -7.4381725e-05 0.0000000e+00 
1.6813399e-06 -7.4460261e-05 0.0000000e+00 
4.7629171e-06 -7.4546573e-05 0.0000000e+00 
7.8499606e-06 -7.4641158e-05 0.0000000e+00 
-1.3248529e-06 -7.8526819e-05 0.0000000e+00 
1.7893561e-06 -7.8607790e-05 0.0000000e+00 
4.8969813e-06 -7.8694514e-05 0.0000000e+00 
8.0101349e-06 -7.8786682e-05 0.0000000e+00 
-1.2282584e-06 -8.2699567e-05 0.0000000e+00 
1.9026705e-06 -8.2783968e-05 0.0000000e+00 
5.0272651e-06 -8.2871484e-05 0.0000000e+00 
8.1576534e-06 -8.2962544e-05 0.0000000e+00 
-1.1175144e-06 -8.6889947e-05 0.0000000e+00 
2.0212344e-06 -8.6976738e-05 0.0000000e+00 
5.1537422e-06 -8.7064560e-05 0.0000000e+00 
8.2919256e-06 -8.7153175e-05 0.0000000e+00 
-9.9253969e-07 -9.1083609e-05 0.0000000e+00 
2.1447660e-06 -9.1173525e-05 0.0000000e+00 
5.2762225e-06 -9.1261946e-05 0.0000000e+00 
8.4134940e-06 -9.1349231e-05 0.0000000e+00 
-8.5421186e-07 -9.5270419e-05 0.0000000e+00 
2.2731029e-06 -9.5362564e-05 0.0000000e+00 
5.3948004e-06 -9.5451187e-05 0.0000000e+00 
8.5220482e-06 -9.5536121e-05 0.0000000e+00 
-7.0277444e-07 -9.9437140e-05 0.0000000e+00 
2.4058670e-06 -9.9531997e-05 0.0000000e+00 
5.5093783e-06 -9.9621019e-05 0.0000000e+00 
8.6184468e-06 -9.9704486e-05 0.0000000e+00 
-5.3932451e-07 -1.0357406e-04 0.0000000e+00 
2.5428070e-06 -1.0367090e-04 0.0000000e+00 
5.6201431e-06 -1.0376002e-04 0.0000000e+00 
8.7026758e-06 -1.0384132e-04 0.0000000e+00 
-3.6435523e-07 -1.0766950e-04 0.0000000e+00 
2.6834921e-06 -1.0776859e-04 0.0000000e+00 
5.7270923e-06 -1.0785793e-04 0.0000000e+00 
8.7757942e-06 -1.0793774e-04 0.0000000e+00 
-1.7909910e-07 -1.1171465e-04 0.0000000e+00 
2.8276143e-06 -1.1181540e-04 0.0000000e+00 
5.8304752e-06 -1.1190475e-04 0.0000000e+00 
8.8380233e-06 -1.1198266e-04 0.0000000e+00 
1.5782761e-08 -1.1569963e-04 0.0000000e+00 
2.9747331e-06 -1.1580216e-04 0.0000000e+00 
5.9303627e-06 -1.1589159e-04 0.0000000e+00 
8.8905097e-06 -1.1596805e-04 0.0000000e+00 
2.1908562e-07 -1.1961684e-04 0.0000000e+00 
3.1245188e-06 -1.1972070e-04 0.0000000e+00 
6.0270300e-06 -1.1981005e-04 0.0000000e+00 
8.9336342e-06 -1.1988489e-04 0.0000000e+00 
4.3011692e-07 -1.2345828e-04 0.0000000e+00 
3.2765172e-06 -1.2356346e-04 0.0000000e+00 
6.1205829e-06 -1.2365272e-04 0.0000000e+00 
8.9685500e-06 -1.2372621e-04 0.0000000e+00 
6.4767345e-07 -1.2721762e-04 0.0000000e+00 
3.4303842e-06 -1.2732380e-04 0.0000000e+00 
6.2112453e-06 -1.2741294e-04 0.0000000e+00 
8.9957977e-06 -1.2748506e-04 0.0000000e+00 
8.7074672e-07 -1.3088884e-04 0.0000000e+00 
3.5857173e-06 -1.3099587e-04 0.0000000e+00 
6.2991810e-06 -1.3108481e-04 0.0000000e+00 
9.0159687e-06 -1.3115572e-04 0.0000000e+00 
1.0987027e-06 -1.3446677e-04 0.0000000e+00 
3.7421275e-06 -1.3457442e-04 0.0000000e+00 
6.3845302e-06 -1.3466310e-04 0.0000000e+00 
9.0300350e-06 -1.3473281e-04 0.0000000e+00 
1.3304416e-06 -1.3794676e-04 0.0000000e+00 
3.8993402e-06 -1.3805496e-04 0.0000000e+00 
6.4675319e-06 -1.3814339e-04 0.0000000e+00 
9.0385018e-06 -1.3821214e-04 0.0000000e+00 
1.5653809e-06 -1.4132529e-04 0.0000000e+00 
4.0569846e-06 -1.4143370e-04 0.0000000e+00 
6.5483241e-06 -1.4152178e-04 0.0000000e+00 
9.0422615e-06 -1.4158949e-04 0.0000000e+00 
1.8025218e-06 -1.4459869e-04 0.0000000e+00 
4.2147983e-06 -1.4470738e-04 0.0000000e+00 
6.6271303e-06 -1.4479516e-04 0.0000000e+00 
9.0417249e-06 -1.4486215e-04 0.0000000e+00 
2.0412893e-06 -1.4776500e-04 0.0000000e+00 
4.3724330e-06 -1.4787355e-04 0.0000000e+00 
6.7040498e-06 -1.4796088e-04 0.0000000e+00 
9.0377886e-06 -1.4802691e-04 0.0000000e+00 
2.2807477e-06 -1.5082160e-04 0.0000000e+00 
4.5296392e-06 -1.5093017e-04 0.0000000e+00 
6.7793012e-06 -1.5101716e-04 0.0000000e+00 
9.0307790e-06 -1.5108270e-04 0.0000000e+00 
2.5203375e-06 -1.5376791e-04 0.0000000e+00 
4.6861255e-06 -1.5387604e-04 0.0000000e+00 
6.8529981e-06 -1.5396251e-04 0.0000000e+00 
9.0214872e-06 -1.5402721e-04 0.0000000e+00 
2.7593479e-06 -1.5660238e-04 0.0000000e+00 
4.8416690e-06 -1.5671031e-04 0.0000000e+00 
6.9253252e-06 -1.5679639e-04 0.0000000e+00 
9.0103665e-06 -1.5686079e-04 0.0000000e+00 
2.9973258e-06 -1.5932556e-04 0.0000000e+00 
4.9960305e-06 -1.5943283e-04 0.0000000e+00 
6.9964041e-06 -1.5951837e-04 0.0000000e+00 
8.9980604e-06 -1.5958208e-04 0.0000000e+00 
3.2335297e-06 -1.6193683e-04 0.0000000e+00 
5.1490367e-06 -1.6204370e-04 0.0000000e+00 
7.0663879e-06 -1.6212885e-04 0.0000000e+00 
8.9848184e-06 -1.6219243e-04 0.0000000e+00 
3.4676208e-06 -1.6443777e-04 0.0000000e+00 
5.3004644e-06 -1.6454373e-04 0.0000000e+00 
7.1353404e-06 -1.6462825e-04 0.0000000e+00 
8.9711584e-06 -1.6469119e-04 0.0000000e+00 
3.6991547e-06 -1.6682827e-04 0.0000000e+00 
5.4501915e-06 -1.6693370e-04 0.0000000e+00 
7.2033822e-06 -1.6701782e-04 0.0000000e+00 
8.9573750e-06 -1.6708074e-04 0.0000000e+00 
3.9278387e-06 -1.6911067e-04 0.0000000e+00 
5.5980994e-06 -1.6921511e-04 0.0000000e+00 
7.2706334e-06 -1.6929854e-04 0.0000000e+00 
8.9437766e-06 -1.6936101e-04 0.0000000e+00 
4.1532985e-06 -1.7128611e-04 0.0000000e+00 
5.7438940e-06 -1.7138943e-04 0.0000000e+00 
7.3369503e-06 -1.7147214e-04 0.0000000e+00 
8.9307043e-06 -1.7153416e-04 0.0000000e+00 
4.3752741e-06 -1.7335557e-04 0.0000000e+00 
5.8876331e-06 -1.7345822e-04 0.0000000e+00 
7.4025806e-06 -1.7354052e-04 0.0000000e+00 
8.9181479e-06 -1.7360263e-04 0.0000000e+00 
4.5936172e-06 -1.7532218e-04 0.0000000e+00 
6.0292368e-06 -1.7542365e-04 0.0000000e+00 
7.4675442e-06 -1.7550530e-04 0.0000000e+00 
8.9063773e-06 -1.7556696e-04 0.0000000e+00 
4.8081100e-06 -1.7718693e-04 0.0000000e+00 
6.1686317e-06 -1.7728767e-04 0.0000000e+00 
7.5318735e-06 -1.7736885e-04 0.0000000e+00 
8.8956209e-06 -1.7743067e-04 0.0000000e+00 
5.0187077e-06 -1.7895323e-04 0.0000000e+00 
6.3057397e-06 -1.7905270e-04 0.0000000e+00 
7.5955991e-06 -1.7913323e-04 0.0000000e+00 
8.8860056e-06 -1.7919467e-04 0.0000000e+00 
5.2251818e-06 -1.8062207e-04 0.0000000e+00 
6.4405314e-06 -1.8072079e-04 0.0000000e+00 
7.6587479e-06 -1.8080087e-04 0.0000000e+00 
8.8774482e-06 -1.8086248e-04 0.0000000e+00 
5.4274604e-06 -1.8219713e-04 0.0000000e+00 
6.5729518e-06 -1.8229452e-04 0.0000000e+00 
7.7213080e-06 -1.8237390e-04 0.0000000e+00 
8.8700770e-06 -1.8243509e-04 0.0000000e+00 
5.6255393e-06 -1.8367955e-04 0.0000000e+00 
6.7029660e-06 -1.8377615e-04 0.0000000e+00 
7.7832929e-06 -1.8385504e-04 0.0000000e+00 
8.8640468e-06 -1.8391644e-04 0.0000000e+00 
5.8194017e-06 -1.8507304e-04 0.0000000e+00 
6.8305704e-06 -1.8516835e-04 0.0000000e+00 
7.8447396e-06 -1.8524661e-04 0.0000000e+00 
8.8594003e-06 -1.8530768e-04 0.0000000e+00 
6.0088380e-06 -1.8637899e-04 0.0000000e+00 
6.9557594e-06 -1.8647350e-04 0.0000000e+00 
7.9056530e-06 -1.8655130e-04 0.0000000e+00 
8.8560119e-06 -1.8661257e-04 0.0000000e+00 
6.1938968e-06 -1.8760125e-04 0.0000000e+00 
7.0784730e-06 -1.8769436e-04 0.0000000e+00 
7.9659711e-06 -1.8777143e-04 0.0000000e+00 
8.8539212e-06 -1.8783226e-04 0.0000000e+00 
6.3746773e-06 -1.8874089e-04 0.0000000e+00 
7.1987173e-06 -1.8883321e-04 0.0000000e+00 
8.0256791e-06 -1.8890979e-04 0.0000000e+00 
8.8531420e-06 -1.8897081e-04 0.0000000e+00 
6.5512151e-06 -1.8980170e-04 0.0000000e+00 
7.3165319e-06 -1.8989272e-04 0.0000000e+00 
8.0848174e-06 -1.8996865e-04 0.0000000e+00 
8.8535997e-06 -1.9002932e-04 0.0000000e+00 
6.7234094e-06 -1.9078497e-04 0.0000000e+00 
7.4319433e-06 -1.9087520e-04 0.0000000e+00 
8.1433740e-06 -1.9095069e-04 0.0000000e+00 
8.8553159e-06 -1.9101152e-04 0.0000000e+00 
6.8913095e-06 -1.9169443e-04 0.0000000e+00 
7.5449583e-06 -1.9178336e-04 0.0000000e+00 
8.2013418e-06 -1.9185808e-04 0.0000000e+00 
8.8582037e-06 -1.9191861e-04 0.0000000e+00 
7.0551952e-06 -1.9253160e-04 0.0000000e+00 
7.6553883e-06 -1.9261931e-04 0.0000000e+00 
8.2584944e-06 -1.9269327e-04 0.0000000e+00 
8.8621637e-06 -1.9275339e-04 0.0000000e+00 
7.2148243e-06 -1.9329837e-04 0.0000000e+00 
7.7634753e-06 -1.9338531e-04 0.0000000e+00 
8.3149829e-06 -1.9345883e-04 0.0000000e+00 
8.8671471e-06 -1.9351909e-04 0.0000000e+00 
7.3703495e-06 -1.9399833e-04 0.0000000e+00 
7.8691916e-06 -1.9408395e-04 0.0000000e+00 
8.3707969e-06 -1.9415678e-04 0.0000000e+00 
8.8730646e-06 -1.9421664e-04 0.0000000e+00 
7.5219934e-06 -1.9463221e-04 0.0000000e+00 
7.9725506e-06 -1.9471710e-04 0.0000000e+00 
8.4258926e-06 -1.9478944e-04 0.0000000e+00 
8.8799053e-06 -1.9484942e-04 0.0000000e+00 
7.6697538e-06 -1.9520335e-04 0.0000000e+00 
8.0736171e-06 -1.9528705e-04 0.0000000e+00 
8.4802609e-06 -1.9535876e-04 0.0000000e+00 
8.8876363e-06 -1.9541833e-04 0.0000000e+00 
7.8136525e-06 -1.9571281e-04 0.0000000e+00 
8.1724053e-06 -1.9579579e-04 0.0000000e+00 
8.5338899e-06 -1.9586704e-04 0.0000000e+00 
8.8961334e-06 -1.9592670e-04 0.0000000e+00 
7.9537749e-06 -1.9616378e-04 0.0000000e+00 
8.2689099e-06 -1.9624554e-04 0.0000000e+00 
8.5867512e-06 -1.9631612e-04 0.0000000e+00 
8.9053261e-06 -1.9637533e-04 0.0000000e+00 
8.0901685e-06 -1.9655703e-04 0.0000000e+00 
8.3631534e-06 -1.9663810e-04 0.0000000e+00 
8.6388123e-06 -1.9670819e-04 0.0000000e+00 
8.9152638e-06 -1.9676747e-04 0.0000000e+00 
8.2229289e-06 -1.9689570e-04 0.0000000e+00 
8.4551521e-06 -1.9697557e-04 0.0000000e+00 
8.6900649e-06 -1.9704502e-04 0.0000000e+00 
8.9258780e-06 -1.9710390e-04 0.0000000e+00 
8.3520349e-06 -1.9718038e-04 0.0000000e+00 
8.5449245e-06 -1.9725958e-04 0.0000000e+00 
8.7404975e-06 -1.9732856e-04 0.0000000e+00 
8.9369312e-06 -1.9738748e-04 0.0000000e+00 
8.4774861e-06 -1.9741418e-04 0.0000000e+00 
8.6324536e-06 -1.9749214e-04 0.0000000e+00 
8.7900576e-06 -1.9756041e-04 0.0000000e+00 
8.9484520e-06 -1.9761881e-04 0.0000000e+00 
8.5993750e-06 -1.9759761e-04 0.0000000e+00 
8.7177323e-06 -1.9767489e-04 0.0000000e+00 
8.8387481e-06 -1.9774269e-04 0.0000000e+00 
8.9605913e-06 -1.9780113e-04 0.0000000e+00 
8.7176547e-06 -1.9773369e-04 0.0000000e+00 
8.8008352e-06 -1.9780987e-04 0.0000000e+00 
8.8866358e-06 -1.9787706e-04 0.0000000e+00 
8.9732880e-06 -1.9793511e-04 0.0000000e+00 
8.8324233e-06 -1.9782322e-04 0.0000000e+00 
8.8817692e-06 -1.9789872e-04 0.0000000e+00 
8.9337260e-06 -1.9796547e-04 0.0000000e+00 
8.9864948e-06 -1.9802357e-04 0.0000000e+00 
8.9436565e-06 -1.9786901e-04 0.0000000e+00 
8.9605596e-06 -1.9794347e-04 0.0000000e+00 
8.9799967e-06 -1.9800952e-04 0.0000000e+00 
9.0002028e-06 -1.9806720e-04 0.0000000e+00 
9.0513836e-06 -1.9787259e-04 0.0000000e+00 
9.0370257e-06 -1.9794589e-04 0.0000000e+00 
9.0252450e-06 -1.9801120e-04 0.0000000e+00 
9.0143456e-06 -1.9806841e-04 0.0000000e+00 
9.1556203e-06 -1.9783494e-04 0.0000000e+00 
9.1113471e-06 -1.9790761e-04 0.0000000e+00 
9.0695978e-06 -1.9797247e-04 0.0000000e+00 
9.0288386e-06 -1.9802968e-04 0.0000000e+00 
9.2565511e-06 -1.9775896e-04 0.0000000e+00 
9.1835451e-06 -1.9783049e-04 0.0000000e+00 
9.1130371e-06 -1.9789471e-04 0.0000000e+00 
9.0435401e-06 -1.9795144e-04 0.0000000e+00 
9.3542494e-06 -1.9764486e-04 0.0000000e+00 
9.2536467e-06 -1.9771580e-04 0.0000000e+00 
9.1555172e-06 -1.9777955e-04 0.0000000e+00 
9.0584193e-06 -1.9783625e-04 0.0000000e+00 
9.4487536e-06 -1.9749534e-04 0.0000000e+00 
9.3216953e-06 -1.9756518e-04 0.0000000e+00 
9.1970113e-06 -1.9762828e-04 0.0000000e+00 
9.0734087e-06 -1.9768448e-04 0.0000000e+00 
9.5402957e-06 -1.9731052e-04 0.0000000e+00 
9.3876987e-06 -1.9737978e-04 0.0000000e+00 
9.2375110e-06 -1.9744242e-04 0.0000000e+00 
9.0883941e-06 -1.9749857e-04 0.0000000e+00 
9.6288296e-06 -1.9709279e-04 0.0000000e+00 
9.4517176e-06 -1.9716108e-04 0.0000000e+00 
9.2770246e-06 -1.9722312e-04 0.0000000e+00 
9.1033620e-06 -1.9727877e-04 0.0000000e+00 
9.7143362e-06 -1.9684268e-04 0.0000000e+00 
9.5137555e-06 -1.9691040e-04 0.0000000e+00 
9.3155381e-06 -1.9697197e-04 0.0000000e+00 
9.1184143e-06 -1.9702757e-04 0.0000000e+00 
9.7969287e-06 -1.9656253e-04 0.0000000e+00 
9.5737900e-06 -1.9662921e-04 0.0000000e+00 
9.3530451e-06 -1.9669019e-04 0.0000000e+00 
9.1334889e-06 -1.9674533e-04 0.0000000e+00 
9.8765412e-06 -1.9625241e-04 0.0000000e+00 
9.6318355e-06 -1.9631853e-04 0.0000000e+00 
9.3895388e-06 -1.9637906e-04 0.0000000e+00 
9.1483674e-06 -1.9643413e-04 0.0000000e+00 
9.9531569e-06 -1.9591474e-04 0.0000000e+00 
9.6878779e-06 -1.9597980e-04 0.0000000e+00 
9.4249362e-06 -1.9603964e-04 0.0000000e+00 
9.1631280e-06 -1.9609409e-04 0.0000000e+00 
1.0026926e-05 -1.9554961e-04 0.0000000e+00 
9.7419117e-06 -1.9561411e-04 0.0000000e+00 
9.4592386e-06 -1.9567348e-04 0.0000000e+00 
9.1777417e-06 -1.9572786e-04 0.0000000e+00 
1.0097871e-05 -1.9515928e-04 0.0000000e+00 
9.7939977e-06 -1.9522285e-04 0.0000000e+00 
9.4924802e-06 -1.9528161e-04 0.0000000e+00 
9.1921216e-06 -1.9533544e-04 0.0000000e+00 
1.0165956e-05 -1.9474412e-04 0.0000000e+00 
9.8441805e-06 -1.9480715e-04 0.0000000e+00 
9.5246311e-06 -1.9486548e-04 0.0000000e+00 
9.2063133e-06 -1.9491919e-04 0.0000000e+00 
1.0231345e-05 -1.9430628e-04 0.0000000e+00 
9.8924703e-06 -1.9436834e-04 0.0000000e+00 
9.5556773e-06 -1.9442596e-04 0.0000000e+00 
9.2201131e-06 -1.9447916e-04 0.0000000e+00 
1.0294216e-05 -1.9384604e-04 0.0000000e+00 
9.9387224e-06 -1.9390715e-04 0.0000000e+00 
9.5854047e-06 -1.9396404e-04 0.0000000e+00 
9.2333740e-06 -1.9401662e-04 0.0000000e+00 
1.0354518e-05 -1.9336364e-04 0.0000000e+00 
9.9831395e-06 -1.9342426e-04 0.0000000e+00 
9.6139375e-06 -1.9348072e-04 0.0000000e+00 
9.2460851e-06 -1.9353314e-04 0.0000000e+00 
1.0412286e-05 -1.9286111e-04 0.0000000e+00 
1.0025746e-05 -1.9292078e-04 0.0000000e+00 
9.6413025e-06 -1.9297662e-04 0.0000000e+00 
9.2581961e-06 -1.9302851e-04 0.0000000e+00 
1.0467724e-05 -1.9233805e-04 0.0000000e+00 
1.0066522e-05 -1.9239724e-04 0.0000000e+00 
9.6674894e-06 -1.9245262e-04 0.0000000e+00 
9.2697457e-06 -1.9250435e-04 0.0000000e+00 
1.0520728e-05 -1.9179625e-04 0.0000000e+00 
1.0105501e-05 -1.9185458e-04 0.0000000e+00 
9.6924922e-06 -1.9190939e-04 0.0000000e+00 
9.2808346e-06 -1.9196056e-04 0.0000000e+00 
1.0571197e-05 -1.9123580e-04 0.0000000e+00 
1.0142663e-05 -1.9129362e-04 0.0000000e+00 
9.7163366e-06 -1.9134798e-04 0.0000000e+00 
9.2913276e-06 -1.9139902e-04 0.0000000e+00 
1.0619145e-05 -1.9065856e-04 0.0000000e+00 
1.0177938e-05 -1.9071542e-04 0.0000000e+00 
9.7389872e-06 -1.9076912e-04 0.0000000e+00 
9.3012878e-06 -1.9081952e-04 0.0000000e+00 