# vtk DataFile Version 4.0
vtk output
ASCII
DATASET UNSTRUCTURED_GRID
POINTS 604 float
5.5000000e+00 5.9700000e+00 0.0000000e+00 
5.5000000e+00 5.9900000e+00 0.0000000e+00 
5.5266667e+00 5.9700000e+00 0.0000000e+00 
5.5266667e+00 5.9900000e+00 0.0000000e+00 
5.5000000e+00 6.0100000e+00 0.0000000e+00 
5.5266667e+00 6.0100000e+00 0.0000000e+00 
5.5533333e+00 5.9700000e+00 0.0000000e+00 
5.5533333e+00 5.9900000e+00 0.0000000e+00 
5.5000000e+00 6.0300000e+00 0.0000000e+00 
5.5266667e+00 6.0300000e+00 0.0000000e+00 
5.5533333e+00 6.0100000e+00 0.0000000e+00 
5.5800000e+00 5.9700000e+00 0.0000000e+00 
5.5533333e+00 6.0300000e+00 0.0000000e+00 
5.5800000e+00 5.9900000e+00 0.0000000e+00 
5.5800000e+00 6.0100000e+00 0.0000000e+00 
5.5800000e+00 6.0300000e+00 0.0000000e+00 
5.6066667e+00 5.9700000e+00 0.0000000e+00 
5.6066667e+00 5.9900000e+00 0.0000000e+00 
5.6066667e+00 6.0100000e+00 0.0000000e+00 
5.6066667e+00 6.0300000e+00 0.0000000e+00 
5.6333333e+00 5.9700000e+00 0.0000000e+00 
5.6333333e+00 5.9900000e+00 0.0000000e+00 
5.6333333e+00 6.0100000e+00 0.0000000e+00 
5.6333333e+00 6.0300000e+00 0.0000000e+00 
5.6600000e+00 5.9700000e+00 0.0000000e+00 
5.6600000e+00 5.9900000e+00 0.0000000e+00 
5.6600000e+00 6.0100000e+00 0.0000000e+00 
5.6600000e+00 6.0300000e+00 0.0000000e+00 
5.6866667e+00 5.9700000e+00 0.0000000e+00 
5.6866667e+00 5.9900000e+00 0.0000000e+00 
5.6866667e+00 6.0100000e+00 0.0000000e+00 
5.6866667e+00 6.0300000e+00 0.0000000e+00 
5.7133333e+00 5.9700000e+00 0.0000000e+00 
5.7133333e+00 5.9900000e+00 0.0000000e+00 
5.7133333e+00 6.0100000e+00 0.0000000e+00 
5.7133333e+00 6.0300000e+00 0.0000000e+00 
5.7400000e+00 5.9700000e+00 0.0000000e+00 
5.7400000e+00 5.9900000e+00 0.0000000e+00 
5.7400000e+00 6.0100000e+00 0.0000000e+00 
5.7400000e+00 6.0300000e+00 0.0000000e+00 
5.7666667e+00 5.9700000e+00 0.0000000e+00 
5.7666667e+00 5.9900000e+00 0.0000000e+00 
5.7666667e+00 6.0100000e+00 0.0000000e+00 
5.7666667e+00 6.0300000e+00 0.0000000e+00 
5.7933333e+00 5.9700000e+00 0.0000000e+00 
5.7933333e+00 5.9900000e+00 0.0000000e+00 
5.7933333e+00 6.0100000e+00 0.0000000e+00 
5.7933333e+00 6.0300000e+00 0.0000000e+00 
5.8200000e+00 5.9700000e+00 0.0000000e+00 
5.8200000e+00 5.9900000e+00 0.0000000e+00 
5.8200000e+00 6.0100000e+00 0.0000000e+00 
5.8200000e+00 6.0300000e+00 0.0000000e+00 
5.8466667e+00 5.9700000e+00 0.0000000e+00 
5.8466667e+00 5.9900000e+00 0.0000000e+00 
5.8466667e+00 6.0100000e+00 0.0000000e+00 
5.8466667e+00 6.0300000e+00 0.0000000e+00 
5.8733333e+00 5.9700000e+00 0.0000000e+00 
5.8733333e+00 5.9900000e+00 0.0000000e+00 
5.8733333e+00 6.0100000e+00 0.0000000e+00 
5.8733333e+00 6.0300000e+00 0.0000000e+00 
5.9000000e+00 5.9700000e+00 0.0000000e+00 
5.9000000e+00 5.9900000e+00 0.0000000e+00 
5.9000000e+00 6.0100000e+00 0.0000000e+00 
5.9000000e+00 6.0300000e+00 0.0000000e+00 
5.9266667e+00 5.9700000e+00 0.0000000e+00 
5.9266667e+00 5.9900000e+00 0.0000000e+00 
5.9266667e+00 6.0100000e+00 0.0000000e+00 
5.9266667e+00 6.0300000e+00 0.0000000e+00 
5.9533333e+00 5.9700000e+00 0.0000000e+00 
5.9533333e+00 5.9900000e+00 0.0000000e+00 
5.9533333e+00 6.0100000e+00 0.0000000e+00 
5.9533333e+00 6.0300000e+00 0.0000000e+00 
5.9800000e+00 5.9700000e+00 0.0000000e+00 
5.9800000e+00 5.9900000e+00 0.0000000e+00 
5.9800000e+00 6.0100000e+00 0.0000000e+00 
5.9800000e+00 6.0300000e+00 0.0000000e+00 
6.0066667e+00 5.9700000e+00 0.0000000e+00 
6.0066667e+00 5.9900000e+00 0.0000000e+00 
6.0066667e+00 6.0100000e+00 0.0000000e+00 
6.0066667e+00 6.0300000e+00 0.0000000e+00 
6.0333333e+00 5.9700000e+00 0.0000000e+00 
6.0333333e+00 5.9900000e+00 0.0000000e+00 
6.0333333e+00 6.0100000e+00 0.0000000e+00 
6.0333333e+00 6.0300000e+00 0.0000000e+00 
6.0600000e+00 5.9700000e+00 0.0000000e+00 
6.0600000e+00 5.9900000e+00 0.0000000e+00 
6.0600000e+00 6.0100000e+00 0.0000000e+00 
6.0600000e+00 6.0300000e+00 0.0000000e+00 
6.0866667e+00 5.9700000e+00 0.0000000e+00 
6.0866667e+00 5.9900000e+00 0.0000000e+00 
6.0866667e+00 6.0100000e+00 0.0000000e+00 
6.0866667e+00 6.0300000e+00 0.0000000e+00 
6.1133333e+00 5.9700000e+00 0.0000000e+00 
6.1133333e+00 5.9900000e+00 0.0000000e+00 
6.1133333e+00 6.0100000e+00 0.0000000e+00 
6.1133333e+00 6.0300000e+00 0.0000000e+00 
6.1400000e+00 5.9700000e+00 0.0000000e+00 
6.1400000e+00 5.9900000e+00 0.0000000e+00 
6.1400000e+00 6.0100000e+00 0.0000000e+00 
6.1400000e+00 6.0300000e+00 0.0000000e+00 
6.1666667e+00 5.9700000e+00 0.0000000e+00 
6.1666667e+00 5.9900000e+00 0.0000000e+00 
6.1666667e+00 6.0100000e+00 0.0000000e+00 
6.1666667e+00 6.0300000e+00 0.0000000e+00 
6.1933333e+00 5.9700000e+00 0.0000000e+00 
6.1933333e+00 5.9900000e+00 0.0000000e+00 
6.1933333e+00 6.0100000e+00 0.0000000e+00 
6.1933333e+00 6.0300000e+00 0.0000000e+00 
6.2200000e+00 5.9700000e+00 0.0000000e+00 
6.2200000e+00 5.9900000e+00 0.0000000e+00 
6.2200000e+00 6.0100000e+00 0.0000000e+00 
6.2200000e+00 6.0300000e+00 0.0000000e+00 
6.2466667e+00 5.9700000e+00 0.0000000e+00 
6.2466667e+00 5.9900000e+00 0.0000000e+00 
6.2466667e+00 6.0100000e+00 0.0000000e+00 
6.2466667e+00 6.0300000e+00 0.0000000e+00 
6.2733333e+00 5.9700000e+00 0.0000000e+00 
6.2733333e+00 5.9900000e+00 0.0000000e+00 
6.2733333e+00 6.0100000e+00 0.0000000e+00 
6.2733333e+00 6.0300000e+00 0.0000000e+00 
6.3000000e+00 5.9700000e+00 0.0000000e+00 
6.3000000e+00 5.9900000e+00 0.0000000e+00 
6.3000000e+00 6.0100000e+00 0.0000000e+00 
6.3000000e+00 6.0300000e+00 0.0000000e+00 
6.3266667e+00 5.9700000e+00 0.0000000e+00 
6.3266667e+00 5.9900000e+00 0.0000000e+00 
6.3266667e+00 6.0100000e+00 0.0000000e+00 
6.3266667e+00 6.0300000e+00 0.0000000e+00 
6.3533333e+00 5.9700000e+00 0.0000000e+00 
6.3533333e+00 5.9900000e+00 0.0000000e+00 
6.3533333e+00 6.0100000e+00 0.0000000e+00 
6.3533333e+00 6.0300000e+00 0.0000000e+00 
6.3800000e+00 5.9700000e+00 0.0000000e+00 
6.3800000e+00 5.9900000e+00 0.0000000e+00 
6.3800000e+00 6.0100000e+00 0.0000000e+00 
6.3800000e+00 6.0300000e+00 0.0000000e+00 
6.4066667e+00 5.9700000e+00 0.0000000e+00 
6.4066667e+00 5.9900000e+00 0.0000000e+00 
6.4066667e+00 6.0100000e+00 0.0000000e+00 
6.4066667e+00 6.0300000e+00 0.0000000e+00 
6.4333333e+00 5.9700000e+00 0.0000000e+00 
6.4333333e+00 5.9900000e+00 0.0000000e+00 
6.4333333e+00 6.0100000e+00 0.0000000e+00 
6.4333333e+00 6.0300000e+00 0.0000000e+00 
6.4600000e+00 5.9700000e+00 0.0000000e+00 
6.4600000e+00 5.9900000e+00 0.0000000e+00 
6.4600000e+00 6.0100000e+00 0.0000000e+00 
6.4600000e+00 6.0300000e+00 0.0000000e+00 
6.4866667e+00 5.9700000e+00 0.0000000e+00 
6.4866667e+00 5.9900000e+00 0.0000000e+00 
6.4866667e+00 6.0100000e+00 0.0000000e+00 
6.4866667e+00 6.0300000e+00 0.0000000e+00 
6.5133333e+00 5.9700000e+00 0.0000000e+00 
6.5133333e+00 5.9900000e+00 0.0000000e+00 
6.5133333e+00 6.0100000e+00 0.0000000e+00 
6.5133333e+00 6.0300000e+00 0.0000000e+00 
6.5400000e+00 5.9700000e+00 0.0000000e+00 
6.5400000e+00 5.9900000e+00 0.0000000e+00 
6.5400000e+00 6.0100000e+00 0.0000000e+00 
6.5400000e+00 6.0300000e+00 0.0000000e+00 
6.5666667e+00 5.9700000e+00 0.0000000e+00 
6.5666667e+00 5.9900000e+00 0.0000000e+00 
6.5666667e+00 6.0100000e+00 0.0000000e+00 
6.5666667e+00 6.0300000e+00 0.0000000e+00 
6.5933333e+00 5.9700000e+00 0.0000000e+00 
6.5933333e+00 5.9900000e+00 0.0000000e+00 
6.5933333e+00 6.0100000e+00 0.0000000e+00 
6.5933333e+00 6.0300000e+00 0.0000000e+00 
6.6200000e+00 5.9700000e+00 0.0000000e+00 
6.6200000e+00 5.9900000e+00 0.0000000e+00 
6.6200000e+00 6.0100000e+00 0.0000000e+00 
6.6200000e+00 6.0300000e+00 0.0000000e+00 
6.6466667e+00 5.9700000e+00 0.0000000e+00 
6.6466667e+00 5.9900000e+00 0.0000000e+00 
6.6466667e+00 6.0100000e+00 0.0000000e+00 
6.6466667e+00 6.0300000e+00 0.0000000e+00 
6.6733333e+00 5.9700000e+00 0.0000000e+00 
6.6733333e+00 5.9900000e+00 0.0000000e+00 
6.6733333e+00 6.0100000e+00 0.0000000e+00 
6.6733333e+00 6.0300000e+00 0.0000000e+00 
6.7000000e+00 5.9700000e+00 0.0000000e+00 
6.7000000e+00 5.9900000e+00 0.0000000e+00 
6.7000000e+00 6.0100000e+00 0.0000000e+00 
6.7000000e+00 6.0300000e+00 0.0000000e+00 
6.7266667e+00 5.9700000e+00 0.0000000e+00 
6.7266667e+00 5.9900000e+00 0.0000000e+00 
6.7266667e+00 6.0100000e+00 0.0000000e+00 
6.7266667e+00 6.0300000e+00 0.0000000e+00 
6.7533333e+00 5.9700000e+00 0.0000000e+00 
6.7533333e+00 5.9900000e+00 0.0000000e+00 
6.7533333e+00 6.0100000e+00 0.0000000e+00 
6.7533333e+00 6.0300000e+00 0.0000000e+00 
6.7800000e+00 5.9700000e+00 0.0000000e+00 
6.7800000e+00 5.9900000e+00 0.0000000e+00 
6.7800000e+00 6.0100000e+00 0.0000000e+00 
6.7800000e+00 6.0300000e+00 0.0000000e+00 
6.8066667e+00 5.9700000e+00 0.0000000e+00 
6.8066667e+00 5.9900000e+00 0.0000000e+00 
6.8066667e+00 6.0100000e+00 0.0000000e+00 
6.8066667e+00 6.0300000e+00 0.0000000e+00 
6.8333333e+00 5.9700000e+00 0.0000000e+00 
6.8333333e+00 5.9900000e+00 0.0000000e+00 
6.8333333e+00 6.0100000e+00 0.0000000e+00 
6.8333333e+00 6.0300000e+00 0.0000000e+00 
6.8600000e+00 5.9700000e+00 0.0000000e+00 
6.8600000e+00 5.9900000e+00 0.0000000e+00 
6.8600000e+00 6.0100000e+00 0.0000000e+00 
6.8600000e+00 6.0300000e+00 0.0000000e+00 
6.8866667e+00 5.9700000e+00 0.0000000e+00 
6.8866667e+00 5.9900000e+00 0.0000000e+00 
6.8866667e+00 6.0100000e+00 0.0000000e+00 
6.8866667e+00 6.0300000e+00 0.0000000e+00 
6.9133333e+00 5.9700000e+00 0.0000000e+00 
6.9133333e+00 5.9900000e+00 0.0000000e+00 
6.9133333e+00 6.0100000e+00 0.0000000e+00 
6.9133333e+00 6.0300000e+00 0.0000000e+00 
6.9400000e+00 5.9700000e+00 0.0000000e+00 
6.9400000e+00 5.9900000e+00 0.0000000e+00 
6.9400000e+00 6.0100000e+00 0.0000000e+00 
6.9400000e+00 6.0300000e+00 0.0000000e+00 
6.9666667e+00 5.9700000e+00 0.0000000e+00 
6.9666667e+00 5.9900000e+00 0.0000000e+00 
6.9666667e+00 6.0100000e+00 0.0000000e+00 
6.9666667e+00 6.0300000e+00 0.0000000e+00 
6.9933333e+00 5.9700000e+00 0.0000000e+00 
6.9933333e+00 5.9900000e+00 0.0000000e+00 
6.9933333e+00 6.0100000e+00 0.0000000e+00 
6.9933333e+00 6.0300000e+00 0.0000000e+00 
7.0200000e+00 5.9700000e+00 0.0000000e+00 
7.0200000e+00 5.9900000e+00 0.0000000e+00 
[...]
POINT_DATA 604
FIELD FieldData 2
DISPLACEMENT 3 604  float
0.0000000e+00 0.0000000e+00 0.0000000e+00 
0.0000000e+00 0.0000000e+00 0.0000000e+00 
1.2451391e-04 7.3822417e-05 0.0000000e+00 
3.9560756e-05 4.7217549e-05 0.0000000e+00 
0.0000000e+00 0.0000000e+00 0.0000000e+00 
-4.0426613e-05 4.7003587e-05 0.0000000e+00 
2.5243408e-04 2.4061637e-04 0.0000000e+00 
8.3529738e-05 2.1777737e-04 0.0000000e+00 
0.0000000e+00 0.0000000e+00 0.0000000e+00 
-1.2553029e-04 7.3265396e-05 0.0000000e+00 
-8.6212308e-05 2.1698144e-04 0.0000000e+00 
3.7930037e-04 5.2569129e-04 0.0000000e+00 
-2.5547739e-04 2.3834364e-04 0.0000000e+00 
1.2429871e-04 5.0150773e-04 0.0000000e+00 
-1.3071516e-04 4.9980979e-04 0.0000000e+00 
-3.8629736e-04 5.2070670e-04 0.0000000e+00 
5.0422423e-04 9.2528650e-04 0.0000000e+00 
1.6378125e-04 8.9995347e-04 0.0000000e+00 
-1.7686355e-04 8.9698393e-04 0.0000000e+00 
-5.1807478e-04 9.1647820e-04 0.0000000e+00 
6.2677489e-04 1.4393861e-03 0.0000000e+00 
2.0113826e-04 1.4124944e-03 0.0000000e+00 
-2.2476813e-04 1.4078907e-03 0.0000000e+00 
-6.5135988e-04 1.4256741e-03 0.0000000e+00 
7.4642786e-04 2.0675375e-03 0.0000000e+00 
2.3592111e-04 2.0387418e-03 0.0000000e+00 
-2.7493526e-04 2.0321488e-03 0.0000000e+00 
-7.8658299e-04 2.0478541e-03 0.0000000e+00 
8.6268016e-04 2.8092961e-03 0.0000000e+00 
2.6764312e-04 2.7782510e-03 0.0000000e+00 
-3.2782119e-04 2.7693177e-03 0.0000000e+00 
-9.2418266e-04 2.7825883e-03 0.0000000e+00 
9.7503345e-04 3.6641844e-03 0.0000000e+00 
2.9582847e-04 3.6305495e-03 0.0000000e+00 
-3.8388002e-04 3.6189300e-03 0.0000000e+00 
-1.0645901e-03 3.6294141e-03 0.0000000e+00 
1.0829962e-03 4.6316943e-03 0.0000000e+00 
3.2000783e-04 4.5951349e-03 0.0000000e+00 
-4.4355861e-04 4.5804885e-03 0.0000000e+00 
-1.2082296e-03 4.5878392e-03 0.0000000e+00 
1.1860837e-03 5.7112878e-03 0.0000000e+00 
3.3971923e-04 5.6714745e-03 0.0000000e+00 
-5.0729651e-04 5.6534662e-03 0.0000000e+00 
-1.3555182e-03 5.6573425e-03 0.0000000e+00 
1.2838198e-03 6.9023957e-03 0.0000000e+00 
3.5450817e-04 6.8590054e-03 0.0000000e+00 
-5.7552550e-04 6.8373062e-03 0.0000000e+00 
-1.5068651e-03 6.8373730e-03 0.0000000e+00 
1.3757345e-03 8.2044187e-03 0.0000000e+00 
3.6392863e-04 8.1571345e-03 0.0000000e+00 
-6.4866913e-04 8.1314218e-03 0.0000000e+00 
-1.6626709e-03 8.1273505e-03 0.0000000e+00 
1.4613688e-03 9.6167264e-03 0.0000000e+00 
3.6754306e-04 9.5652381e-03 0.0000000e+00 
-7.2714226e-04 9.5351959e-03 0.0000000e+00 
-1.8233279e-03 9.5266643e-03 0.0000000e+00 
1.5402715e-03 1.1138658e-02 0.0000000e+00 
3.6492328e-04 1.1082663e-02 0.0000000e+00 
-8.1135072e-04 1.1047982e-02 0.0000000e+00 
-1.9892195e-03 1.1034675e-02 0.0000000e+00 
1.6120022e-03 1.2769523e-02 0.0000000e+00 
3.5565055e-04 1.2708724e-02 0.0000000e+00 
-9.0169082e-04 1.2669103e-02 0.0000000e+00 
-2.1607194e-03 1.2650713e-02 0.0000000e+00 
1.6761297e-03 1.4508599e-02 0.0000000e+00 
3.3931616e-04 1.4442708e-02 0.0000000e+00 
-9.9854894e-04 1.4397853e-02 0.0000000e+00 
-2.3381916e-03 1.4374081e-02 0.0000000e+00 
1.7322331e-03 1.6355135e-02 0.0000000e+00 
3.1552188e-04 1.6283872e-02 0.0000000e+00 
-1.1023011e-03 1.6233497e-02 0.0000000e+00 
-2.5219899e-03 1.6204050e-02 0.0000000e+00 
1.7799037e-03 1.8308349e-02 0.0000000e+00 
2.8388019e-04 1.8231442e-02 0.0000000e+00 
-1.2133127e-03 1.8175269e-02 0.0000000e+00 
-2.7124572e-03 1.8139863e-02 0.0000000e+00 
1.8187426e-03 2.0367430e-02 0.0000000e+00 
2.4401500e-04 2.0284615e-02 0.0000000e+00 
-1.3319378e-03 2.0222374e-02 0.0000000e+00 
-2.9099260e-03 2.0180734e-02 0.0000000e+00 
1.8483638e-03 2.2531536e-02 0.0000000e+00 
1.9556209e-04 2.2442559e-02 0.0000000e+00 
-1.4585192e-03 2.2373989e-02 0.0000000e+00 
-3.1147169e-03 2.2325849e-02 0.0000000e+00 
1.8683952e-03 2.4799798e-02 0.0000000e+00 
1.3816904e-04 2.4704411e-02 0.0000000e+00 
-1.5933879e-03 2.4629262e-02 0.0000000e+00 
-3.3271400e-03 2.4574364e-02 0.0000000e+00 
1.8784750e-03 2.7171318e-02 0.0000000e+00 
7.1495876e-05 2.7069285e-02 0.0000000e+00 
-1.7368628e-03 2.6987313e-02 0.0000000e+00 
-3.5474929e-03 2.6925410e-02 0.0000000e+00 
1.8782544e-03 2.9645167e-02 0.0000000e+00 
-4.7849316e-06 2.9536260e-02 0.0000000e+00 
-1.8892502e-03 2.9447234e-02 0.0000000e+00 
-3.7760603e-03 2.9378086e-02 0.0000000e+00 
1.8673984e-03 3.2220390e-02 0.0000000e+00 
-9.0988360e-05 3.2104392e-02 0.0000000e+00 
-2.0508435e-03 3.2008088e-02 0.0000000e+00 
-4.0131144e-03 3.1931468e-02 0.0000000e+00 
1.8455821e-03 3.4896002e-02 0.0000000e+00 
-1.8741568e-04 3.4772706e-02 0.0000000e+00 
-2.2219231e-03 3.4668911e-02 0.0000000e+00 
-4.2589141e-03 3.4584600e-02 0.0000000e+00 
1.8124980e-03 3.7670989e-02 0.0000000e+00 
-2.9435475e-04 3.7540198e-02 0.0000000e+00 
-2.4027556e-03 3.7428710e-02 0.0000000e+00 
-4.5137052e-03 3.7336500e-02 0.0000000e+00 
1.7678519e-03 4.0544310e-02 0.0000000e+00 
-4.1207909e-04 4.0405837e-02 0.0000000e+00 
-2.5935942e-03 4.0286464e-02 0.0000000e+00 
-4.7777202e-03 4.0186157e-02 0.0000000e+00 
1.7113646e-03 4.3514896e-02 0.0000000e+00 
-5.4084806e-04 4.3368565e-02 0.0000000e+00 
-2.7946780e-03 4.3241125e-02 0.0000000e+00 
-5.0511781e-03 4.3132535e-02 0.0000000e+00 
1.6427712e-03 4.6581652e-02 0.0000000e+00 
-6.8090640e-04 4.6427296e-02 0.0000000e+00 
-3.0062320e-03 4.6291619e-02 0.0000000e+00 
-5.3342840e-03 4.6174570e-02 0.0000000e+00 
1.5618225e-03 4.9743454e-02 0.0000000e+00 
-8.3248424e-04 4.9580921e-02 0.0000000e+00 
-3.2284667e-03 4.9436847e-02 0.0000000e+00 
-5.6272287e-03 4.9311174e-02 0.0000000e+00 
1.4682840e-03 5.2999155e-02 0.0000000e+00 
-9.9579659e-04 5.2828299e-02 0.0000000e+00 
-3.4615783e-03 5.2675680e-02 0.0000000e+00 
-5.9301890e-03 5.2541231e-02 0.0000000e+00 
1.3619373e-03 5.6347580e-02 0.0000000e+00 
-1.1710434e-03 5.6168270e-02 0.0000000e+00 
-3.7057477e-03 5.6006968e-02 0.0000000e+00 
-6.2433277e-03 5.5863599e-02 0.0000000e+00 
1.2425798e-03 5.9787532e-02 0.0000000e+00 
-1.3584091e-03 5.9599646e-02 0.0000000e+00 
-3.9611417e-03 5.9429535e-02 0.0000000e+00 
-6.5667931e-03 5.9277116e-02 0.0000000e+00 
1.1100246e-03 6.3317786e-02 0.0000000e+00 
-1.5580630e-03 6.3121215e-02 0.0000000e+00 
-4.2279116e-03 6.2942181e-02 0.0000000e+00 
-6.9007190e-03 6.2780593e-02 0.0000000e+00 
9.6410079e-04 6.6937099e-02 0.0000000e+00 
-1.7701582e-03 6.6731743e-02 0.0000000e+00 
-4.5061942e-03 6.6543684e-02 0.0000000e+00 
-7.2452249e-03 6.6372819e-02 0.0000000e+00 
8.0465675e-04 7.0644203e-02 0.0000000e+00 
-1.9948327e-03 7.0429974e-02 0.0000000e+00 
-4.7961109e-03 7.0232797e-02 0.0000000e+00 
-7.6004173e-03 7.0052560e-02 0.0000000e+00 
6.3155311e-04 7.4437809e-02 0.0000000e+00 
-2.2322084e-03 7.4214633e-02 0.0000000e+00 
-5.0977684e-03 7.4008258e-02 0.0000000e+00 
-7.9663870e-03 7.3818564e-02 0.0000000e+00 
4.4466830e-04 7.8316609e-02 0.0000000e+00 
-2.4823924e-03 7.8084419e-02 0.0000000e+00 
-5.4112579e-03 7.7868778e-02 0.0000000e+00 
-8.3432086e-03 7.7669555e-02 0.0000000e+00 
2.4389614e-04 8.2279272e-02 0.0000000e+00 
-2.7454763e-03 8.2038017e-02 0.0000000e+00 
-5.7366554e-03 8.1813052e-02 0.0000000e+00 
-8.7309433e-03 8.1604239e-02 0.0000000e+00 
2.9142887e-05 8.6324447e-02 0.0000000e+00 
-3.0215356e-03 8.6074085e-02 0.0000000e+00 
-6.0740216e-03 8.5839751e-02 0.0000000e+00 
-9.1296362e-03 8.5621298e-02 0.0000000e+00 
-1.9966470e-04 9.0450764e-02 0.0000000e+00 
-3.3106305e-03 9.0191264e-02 0.0000000e+00 
-6.4234021e-03 8.9947527e-02 0.0000000e+00 
-9.5393187e-03 8.9719398e-02 0.0000000e+00 
-4.4258370e-04 9.4656833e-02 0.0000000e+00 
-3.6128047e-03 9.4388177e-02 0.0000000e+00 
-6.7848273e-03 9.4135015e-02 0.0000000e+00 
-9.9600079e-03 9.3897183e-02 0.0000000e+00 
-6.9965548e-04 9.8941248e-02 0.0000000e+00 
-3.9280869e-03 9.8663428e-02 0.0000000e+00 
-7.1583131e-03 9.8400831e-02 0.0000000e+00 
-1.0391707e-02 9.8153283e-02 0.0000000e+00 
-9.7090476e-04 1.0330259e-01 0.0000000e+00 
-4.2564897e-03 1.0301561e-01 0.0000000e+00 
-7.5438601e-03 1.0274357e-01 0.0000000e+00 
-1.0834404e-02 1.0248631e-01 0.0000000e+00 
-1.2563408e-03 1.0773941e-01 0.0000000e+00 
-4.5980109e-03 1.0744328e-01 0.0000000e+00 
-7.9414546e-03 1.0716183e-01 0.0000000e+00 
-1.1288075e-02 1.0689485e-01 0.0000000e+00 
-1.5559563e-03 1.1225027e-01 0.0000000e+00 
-4.9526324e-03 1.1194502e-01 0.0000000e+00 
-8.3510687e-03 1.1165416e-01 0.0000000e+00 
-1.1752681e-02 1.1137749e-01 0.0000000e+00 
-1.8697273e-03 1.1683369e-01 0.0000000e+00 
-5.3203216e-03 1.1651935e-01 0.0000000e+00 
-8.7726601e-03 1.1621913e-01 0.0000000e+00 
-1.2228170e-02 1.1593280e-01 0.0000000e+00 
-2.1976156e-03 1.2148820e-01 0.0000000e+00 
-5.7010313e-03 1.2116482e-01 0.0000000e+00 
-9.2061733e-03 1.2085527e-01 0.0000000e+00 
-1.2714479e-02 1.2055933e-01 0.0000000e+00 
-2.5395664e-03 1.2621231e-01 0.0000000e+00 
-6.0946998e-03 1.2587995e-01 0.0000000e+00 
-9.6515391e-03 1.2556113e-01 0.0000000e+00 
-1.3211532e-02 1.2525562e-01 0.0000000e+00 
-2.8955117e-03 1.3100453e-01 0.0000000e+00 
-6.5012518e-03 1.3066326e-01 0.0000000e+00 
-1.0108676e-02 1.3033522e-01 0.0000000e+00 
-1.3719239e-02 1.3002021e-01 0.0000000e+00 
-3.2653677e-03 1.3586335e-01 0.0000000e+00 
-6.9205980e-03 1.3551323e-01 0.0000000e+00 
-1.0577488e-02 1.3517607e-01 0.0000000e+00 
-1.4237500e-02 1.3485162e-01 0.0000000e+00 
-3.6490380e-03 1.4078727e-01 0.0000000e+00 
-7.3526359e-03 1.4042839e-01 0.0000000e+00 
-1.1057868e-02 1.4008217e-01 0.0000000e+00 
-1.4766202e-02 1.3974838e-01 0.0000000e+00 
-4.0464087e-03 1.4577476e-01 0.0000000e+00 
-7.7972503e-03 1.4540721e-01 0.0000000e+00 
-1.1549698e-02 1.4505204e-01 0.0000000e+00 
-1.5305224e-02 1.4470898e-01 0.0000000e+00 
-4.4573571e-03 1.5082431e-01 0.0000000e+00 
-8.2543132e-03 1.5044820e-01 0.0000000e+00 
-1.2052846e-02 1.5008417e-01 0.0000000e+00 
-1.5854433e-02 1.4973195e-01 0.0000000e+00 
-4.8817446e-03 1.5593439e-01 0.0000000e+00 
-8.7236851e-03 1.5554983e-01 0.0000000e+00 
-1.2567171e-02 1.5517705e-01 0.0000000e+00 
-1.6413682e-02 1.5481579e-01 0.0000000e+00 
-5.3194227e-03 1.6110348e-01 0.0000000e+00 
-9.2052153e-03 1.6071058e-01 0.0000000e+00 
-1.3092518e-02 1.6032917e-01 0.0000000e+00 
-1.6982817e-02 1.5995898e-01 0.0000000e+00 
-5.7702330e-03 1.6633005e-01 0.0000000e+00 
-9.6987412e-03 1.6592895e-01 0.0000000e+00 
-1.3628725e-02 1.6553903e-01 0.0000000e+00 
-1.7561670e-02 1.6516003e-01 0.0000000e+00 
-6.2340027e-03 1.7161257e-01 0.0000000e+00 
-1.0204090e-02 1.7120339e-01 0.0000000e+00 
-1.4175616e-02 1.7080511e-01 0.0000000e+00 
-1.8150068e-02 1.7041744e-01 0.0000000e+00 
-6.7105465e-03 1.7694951e-01 0.0000000e+00 
-1.0721076e-02 1.7653240e-01 0.0000000e+00 
-1.4733007e-02 1.7612589e-01 0.0000000e+00 
-1.8747826e-02 1.7572969e-01 0.0000000e+00 
-7.1996699e-03 1.8233934e-01 0.0000000e+00 
-1.1249507e-02 1.8191445e-01 0.0000000e+00 
-1.5300707e-02 1.8149985e-01 0.0000000e+00 
-1.9354754e-02 1.8109528e-01 0.0000000e+00 
-7.7011666e-03 1.8778054e-01 0.0000000e+00 
-1.1789178e-02 1.8734802e-01 0.0000000e+00 
-1.5878513e-02 1.8692550e-01 0.0000000e+00 
-1.9970652e-02 1.8651269e-01 0.0000000e+00 
-8.2148197e-03 1.9327159e-01 0.0000000e+00 
-1.2339877e-02 1.9283159e-01 0.0000000e+00 
-1.6466217e-02 1.9240130e-01 0.0000000e+00 
-2.0595314e-02 1.9198044e-01 0.0000000e+00 
-8.7404044e-03 1.9881096e-01 0.0000000e+00 
-1.2901382e-02 1.9836366e-01 0.0000000e+00 
-1.7063601e-02 1.9792577e-01 0.0000000e+00 
-2.1228530e-02 1.9749701e-01 0.0000000e+00 
-9.2776859e-03 2.0439716e-01 0.0000000e+00 
-1.3473465e-02 2.0394272e-01 0.0000000e+00 
-1.7670443e-02 2.0349741e-01 0.0000000e+00 
-2.1870081e-02 2.0306093e-01 0.0000000e+00 
-9.8264231e-03 2.1002868e-01 0.0000000e+00 
-1.4055889e-02 2.0956729e-01 0.0000000e+00 
-1.8286514e-02 2.0911472e-01 0.0000000e+00 
-2.2519745e-02 2.0867070e-01 0.0000000e+00 
-1.0386365e-02 2.1570405e-01 0.0000000e+00 
-1.4648414e-02 2.1523587e-01 0.0000000e+00 
-1.8911578e-02 2.1477624e-01 0.0000000e+00 
-2.3177296e-02 2.1432485e-01 0.0000000e+00 
-1.0957256e-02 2.2142177e-01 0.0000000e+00 
-1.5250790e-02 2.2094699e-01 0.0000000e+00 
-1.9545396e-02 2.2048048e-01 0.0000000e+00 
-2.3842503e-02 2.2002192e-01 0.0000000e+00 
-1.1538834e-02 2.2718039e-01 0.0000000e+00 
-1.5862765e-02 2.2669920e-01 0.0000000e+00 
-2.0187723e-02 2.2622599e-01 0.0000000e+00 
-2.4515127e-02 2.2576045e-01 0.0000000e+00 
-1.2130831e-02 2.3297846e-01 0.0000000e+00 
-1.6484080e-02 2.3249105e-01 0.0000000e+00 
-2.0838310e-02 2.3201133e-01 0.0000000e+00 
-2.5194930e-02 2.3153900e-01 0.0000000e+00 
-1.2732978e-02 2.3881453e-01 0.0000000e+00 
-1.7114473e-02 2.3832109e-01 0.0000000e+00 
-2.1496904e-02 2.3783505e-01 0.0000000e+00 
-2.5881666e-02 2.3735614e-01 0.0000000e+00 
-1.3344997e-02 2.4468718e-01 0.0000000e+00 
-1.7753676e-02 2.4418790e-01 0.0000000e+00 
-2.2163248e-02 2.4369575e-01 0.0000000e+00 
-2.6575091e-02 2.4321044e-01 0.0000000e+00 
-1.3966606e-02 2.5059499e-01 0.0000000e+00 
-1.8401420e-02 2.5009007e-01 0.0000000e+00 
-2.2837082e-02 2.4959201e-01 0.0000000e+00 
-2.7274956e-02 2.4910051e-01 0.0000000e+00 
-1.4597520e-02 2.5653658e-01 0.0000000e+00 
-1.9057432e-02 2.5602621e-01 0.0000000e+00 
-2.3518148e-02 2.5552243e-01 0.0000000e+00 
-2.7981014e-02 2.5502495e-01 0.0000000e+00 
-1.5237451e-02 2.6251055e-01 0.0000000e+00 
-1.9721437e-02 2.6199494e-01 0.0000000e+00 
-2.4206181e-02 2.6148565e-01 0.0000000e+00 
-2.8693014e-02 2.6098239e-01 0.0000000e+00 
-1.5886108e-02 2.6851556e-01 0.0000000e+00 
-2.0393156e-02 2.6799490e-01 0.0000000e+00 
-2.4900919e-02 2.6748030e-01 0.0000000e+00 
-2.9410708e-02 2.6697147e-01 0.0000000e+00 
-1.6543199e-02 2.7455026e-01 0.0000000e+00 
-2.1072312e-02 2.7402476e-01 0.0000000e+00 
-2.5602097e-02 2.7350505e-01 0.0000000e+00 
-3.0133845e-02 2.7299085e-01 0.0000000e+00 
-1.7208428e-02 2.8061334e-01 0.0000000e+00 
-2.1758626e-02 2.8008318e-01 0.0000000e+00 
-2.6309453e-02 2.7955857e-01 0.0000000e+00 
-3.0862179e-02 2.7903922e-01 0.0000000e+00 
-1.7881501e-02 2.8670349e-01 0.0000000e+00 
-2.2451819e-02 2.8616888e-01 0.0000000e+00 
-2.7022724e-02 2.8563957e-01 0.0000000e+00 
-3.1595464e-02 2.8511526e-01 0.0000000e+00 
-1.8562121e-02 2.9281944e-01 0.0000000e+00 
-2.3151612e-02 2.9228058e-01 0.0000000e+00 
-2.7741649e-02 2.9174677e-01 0.0000000e+00 
-3.2333456e-02 2.9121772e-01 0.0000000e+00 
-1.9249995e-02 2.9895994e-01 0.0000000e+00 
-2.3857728e-02 2.9841703e-01 0.0000000e+00 
-2.8465968e-02 2.9787891e-01 0.0000000e+00 
-3.3075914e-02 2.9734532e-01 0.0000000e+00 
-1.9944827e-02 3.0512377e-01 0.0000000e+00 
-2.4569893e-02 3.0457700e-01 0.0000000e+00 
-2.9195425e-02 3.0403478e-01 0.0000000e+00 
-3.3822600e-02 3.0349685e-01 0.0000000e+00 
-2.0646325e-02 3.1130974e-01 0.0000000e+00 
-2.5287832e-02 3.1075928e-01 0.0000000e+00 
-2.9929767e-02 3.1021316e-01 0.0000000e+00 
-3.4573278e-02 3.0967110e-01 0.0000000e+00 
-2.1354198e-02 3.1751665e-01 0.0000000e+00 
-2.6011275e-02 3.1696272e-01 0.0000000e+00 
-3.0668743e-02 3.1641288e-01 0.0000000e+00 
-3.5327722e-02 3.1586689e-01 0.0000000e+00 
-2.2068160e-02 3.2374339e-01 0.0000000e+00 
-2.6739956e-02 3.2318615e-01 0.0000000e+00 
-3.1412106e-02 3.2263280e-01 0.0000000e+00 
-3.6085705e-02 3.2208306e-01 0.0000000e+00 
-2.2787925e-02 3.2998882e-01 0.0000000e+00 
-2.7473610e-02 3.2942847e-01 0.0000000e+00 
-3.2159615e-02 3.2887178e-01 0.0000000e+00 
-3.6847006e-02 3.2831850e-01 0.0000000e+00 
-2.3513214e-02 3.3625187e-01 0.0000000e+00 
-2.8211979e-02 3.3568858e-01 0.0000000e+00 
-3.2911030e-02 3.3512875e-01 0.0000000e+00 
-3.7611407e-02 3.3457211e-01 0.0000000e+00 
-2.4243751e-02 3.4253147e-01 0.0000000e+00 
-2.8954807e-02 3.4196542e-01 0.0000000e+00 
-3.3666118e-02 3.4140262e-01 0.0000000e+00 
-3.8378692e-02 3.4084281e-01 0.0000000e+00 
-2.4979261e-02 3.4882659e-01 0.0000000e+00 
-2.9701844e-02 3.4825796e-01 0.0000000e+00 
-3.4424648e-02 3.4769236e-01 0.0000000e+00 
-3.9148656e-02 3.4712958e-01 0.0000000e+00 
-2.5719477e-02 3.5513624e-01 0.0000000e+00 
-3.0452841e-02 3.5456518e-01 0.0000000e+00 
-3.5186398e-02 3.5399697e-01 0.0000000e+00 
-3.9921098e-02 3.5343138e-01 0.0000000e+00 
-2.6464135e-02 3.6145944e-01 0.0000000e+00 
-3.1207560e-02 3.6088613e-01 0.0000000e+00 
-3.5951150e-02 3.6031547e-01 0.0000000e+00 
-4.0695823e-02 3.5974725e-01 0.0000000e+00 
-2.7212976e-02 3.6779526e-01 0.0000000e+00 
-3.1965765e-02 3.6721985e-01 0.0000000e+00 
-3.6718693e-02 3.6664691e-01 0.0000000e+00 
-4.1472645e-02 3.6607623e-01 0.0000000e+00 
-2.7965748e-02 3.7414279e-01 0.0000000e+00 
-3.2727228e-02 3.7356543e-01 0.0000000e+00 
-3.7488821e-02 3.7299037e-01 0.0000000e+00 
-4.2251381e-02 3.7241740e-01 0.0000000e+00 
-2.8722203e-02 3.8050116e-01 0.0000000e+00 
-3.3491725e-02 3.7992201e-01 0.0000000e+00 
-3.8261338e-02 3.7934498e-01 0.0000000e+00 
-4.3031861e-02 3.7876988e-01 0.0000000e+00 
-2.9482101e-02 3.8686954e-01 0.0000000e+00 
-3.4259042e-02 3.8628872e-01 0.0000000e+00 
-3.9036052e-02 3.8570988e-01 0.0000000e+00 
-4.3813917e-02 3.8513280e-01 0.0000000e+00 
-3.0245208e-02 3.9324711e-01 0.0000000e+00 
-3.5028971e-02 3.9266478e-01 0.0000000e+00 
-3.9812780e-02 3.9208426e-01 0.0000000e+00 
-4.4597391e-02 3.9150536e-01 0.0000000e+00 
-3.1011298e-02 3.9963310e-01 0.0000000e+00 
-3.5801309e-02 3.9904939e-01 0.0000000e+00 
-4.0591348e-02 3.9846733e-01 0.0000000e+00 
-4.5382135e-02 3.9788676e-01 0.0000000e+00 
-3.1780153e-02 4.0602679e-01 0.0000000e+00 
-3.6575865e-02 4.0544182e-01 0.0000000e+00 
-4.1371587e-02 4.0485836e-01 0.0000000e+00 
-4.6168006e-02 4.0427624e-01 0.0000000e+00 
-3.2551563e-02 4.1242747e-01 0.0000000e+00 
-3.7352453e-02 4.1184136e-01 0.0000000e+00 
-4.2153337e-02 4.1125662e-01 0.0000000e+00 
-4.6954869e-02 4.1067310e-01 0.0000000e+00 
-3.3325325e-02 4.1883447e-01 0.0000000e+00 
-3.8130895e-02 4.1824733e-01 0.0000000e+00 
-4.2936443e-02 4.1766144e-01 0.0000000e+00 
-4.7742596e-02 4.1707664e-01 0.0000000e+00 
-3.4101244e-02 4.2524714e-01 0.0000000e+00 
-3.8911020e-02 4.2465910e-01 0.0000000e+00 
-4.3720760e-02 4.2407217e-01 0.0000000e+00 
-4.8531059e-02 4.2348621e-01 0.0000000e+00 
-3.4879133e-02 4.3166490e-01 0.0000000e+00 
-3.9692664e-02 4.3107604e-01 0.0000000e+00 
-4.4506148e-02 4.3048818e-01 0.0000000e+00 
-4.9320146e-02 4.2990119e-01 0.0000000e+00 
-3.5658813e-02 4.3808715e-01 0.0000000e+00 
-4.0475673e-02 4.3749758e-01 0.0000000e+00 
-4.5292475e-02 4.3690890e-01 0.0000000e+00 
-5.0109748e-02 4.3632098e-01 0.0000000e+00 
-3.6440110e-02 4.4451336e-01 0.0000000e+00 
-4.1259898e-02 4.4392317e-01 0.0000000e+00 
-4.6079618e-02 4.4333377e-01 0.0000000e+00 
-5.0899769e-02 4.4274502e-01 0.0000000e+00 
-3.7222862e-02 4.5094302e-01 0.0000000e+00 
-4.2045199e-02 4.5035230e-01 0.0000000e+00 
-4.6867462e-02 4.4976227e-01 0.0000000e+00 
-5.1690115e-02 4.4917280e-01 0.0000000e+00 
-3.8006911e-02 4.5737566e-01 0.0000000e+00 
-4.2831445e-02 4.5678449e-01 0.0000000e+00 
-4.7655898e-02 4.5619391e-01 0.0000000e+00 
-5.2480703e-02 4.5560381e-01 0.0000000e+00 
-3.8792110e-02 4.6381083e-01 0.0000000e+00 
-4.3618511e-02 4.6321929e-01 0.0000000e+00 
-4.8444825e-02 4.6262824e-01 0.0000000e+00 
-5.3271457e-02 4.6203760e-01 0.0000000e+00 
-3.9578320e-02 4.7024812e-01 0.0000000e+00 
-4.4406281e-02 4.6965627e-01 0.0000000e+00 
-4.9234152e-02 4.6906484e-01 0.0000000e+00 
-5.4062305e-02 4.6847373e-01 0.0000000e+00 
-4.0365410e-02 4.7668715e-01 0.0000000e+00 
-4.5194648e-02 4.7609505e-01 0.0000000e+00 
-5.0023791e-02 4.7550330e-01 0.0000000e+00 
-5.4853185e-02 4.7491181e-01 0.0000000e+00 
-4.1153258e-02 4.8312755e-01 0.0000000e+00 
-4.5983509e-02 4.8253527e-01 0.0000000e+00 
-5.0813665e-02 4.8194327e-01 0.0000000e+00 
-5.5644040e-02 4.8135147e-01 0.0000000e+00 
-4.1941746e-02 4.8956902e-01 0.0000000e+00 
-4.6772772e-02 4.8897661e-01 0.0000000e+00 
-5.1603700e-02 4.8838441e-01 0.0000000e+00 
-5.6434818e-02 4.8779235e-01 0.0000000e+00 
-4.2730770e-02 4.9601124e-01 0.0000000e+00 
-4.7562351e-02 4.9541875e-01 0.0000000e+00 
-5.2393834e-02 4.9482642e-01 0.0000000e+00 
-5.7225480e-02 4.9423417e-01 0.0000000e+00 
-4.3520230e-02 5.0245396e-01 0.0000000e+00 
-4.8352168e-02 5.0186143e-01 0.0000000e+00 
-5.3184008e-02 5.0126901e-01 0.0000000e+00 
-5.8015984e-02 5.0067663e-01 0.0000000e+00 
-4.4310036e-02 5.0889693e-01 0.0000000e+00 
-4.9142151e-02 5.0830441e-01 0.0000000e+00 