# vtk DataFile Version 4.0
vtk output
ASCII
DATASET UNSTRUCTURED_GRID
POINTS 604 float
5.5000000e+00 5.9700000e+00 0.0000000e+00 
5.5000000e+00 5.9900000e+00 0.0000000e+00 
5.5266667e+00 5.9700000e+00 0.0000000e+00 
5.5266667e+00 5.9900000e+00 0.0000000e+00 
5.5000000e+00 6.0100000e+00 0.0000000e+00 
5.5266667e+00 6.0100000e+00 0.0000000e+00 
5.5533333e+00 5.9700000e+00 0.0000000e+00 
5.5533333e+00 5.9900000e+00 0.0000000e+00 
5.5000000e+00 6.0300000e+00 0.0000000e+00 
5.5266667e+00 6.0300000e+00 0.0000000e+00 
5.5533333e+00 6.0100000e+00 0.0000000e+00 
5.5800000e+00 5.9700000e+00 0.0000000e+00 
5.5533333e+00 6.0300000e+00 0.0000000e+00 
5.5800000e+00 5.9900000e+00 0.0000000e+00 
5.5800000e+00 6.0100000e+00 0.0000000e+00 
5.5800000e+00 6.0300000e+00 0.0000000e+00 
5.6066667e+00 5.9700000e+00 0.0000000e+00 
5.6066667e+00 5.9900000e+00 0.0000000e+00 
5.6066667e+00 6.0100000e+00 0.0000000e+00 
5.6066667e+00 6.0300000e+00 0.0000000e+00 
5.6333333e+00 5.9700000e+00 0.0000000e+00 
5.6333333e+00 5.9900000e+00 0.0000000e+00 
5.6333333e+00 6.0100000e+00 0.0000000e+00 
5.6333333e+00 6.0300000e+00 0.0000000e+00 
5.6600000e+00 5.9700000e+00 0.0000000e+00 
5.6600000e+00 5.9900000e+00 0.0000000e+00 
5.6600000e+00 6.0100000e+00 0.0000000e+00 
5.6600000e+00 6.0300000e+00 0.0000000e+00 
5.6866667e+00 5.9700000e+00 0.0000000e+00 
5.6866667e+00 5.9900000e+00 0.0000000e+00 
5.6866667e+00 6.0100000e+00 0.0000000e+00 
5.6866667e+00 6.0300000e+00 0.0000000e+00 
5.7133333e+00 5.9700000e+00 0.0000000e+00 
5.7133333e+00 5.9900000e+00 0.0000000e+00 
5.7133333e+00 6.0100000e+00 0.0000000e+00 
5.7133333e+00 6.0300000e+00 0.0000000e+00 
5.7400000e+00 5.9700000e+00 0.0000000e+00 
5.7400000e+00 5.9900000e+00 0.0000000e+00 
5.7400000e+00 6.0100000e+00 0.0000000e+00 
5.7400000e+00 6.0300000e+00 0.0000000e+00 
5.7666667e+00 5.9700000e+00 0.0000000e+00 
5.7666667e+00 5.9900000e+00 0.0000000e+00 
5.7666667e+00 6.0100000e+00 0.0000000e+00 
5.7666667e+00 6.0300000e+00 0.0000000e+00 
5.7933333e+00 5.9700000e+00 0.0000000e+00 
5.7933333e+00 5.9900000e+00 0.0000000e+00 
5.7933333e+00 6.0100000e+00 0.0000000e+00 
5.7933333e+00 6.0300000e+00 0.0000000e+00 
5.8200000e+00 5.9700000e+00 0.0000000e+00 
5.8200000e+00 5.9900000e+00 0.0000000e+00 
5.8200000e+00 6.0100000e+00 0.0000000e+00 
5.8200000e+00 6.0300000e+00 0.0000000e+00 
5.8466667e+00 5.9700000e+00 0.0000000e+00 
5.8466667e+00 5.9900000e+00 0.0000000e+00 
5.8466667e+00 6.0100000e+00 0.0000000e+00 
5.8466667e+00 6.0300000e+00 0.0000000e+00 
5.8733333e+00 5.9700000e+00 0.0000000e+00 
5.8733333e+00 5.9900000e+00 0.0000000e+00 
5.8733333e+00 6.0100000e+00 0.0000000e+00 
5.8733333e+00 6.0300000e+00 0.0000000e+00 
5.9000000e+00 5.9700000e+00 0.0000000e+00 
5.9000000e+00 5.9900000e+00 0.0000000e+00 
5.9000000e+00 6.0100000e+00 0.0000000e+00 
5.9000000e+00 6.0300000e+00 0.0000000e+00 
5.9266667e+00 5.9700000e+00 0.0000000e+00 
5.9266667e+00 5.9900000e+00 0.0000000e+00 
5.9266667e+00 6.0100000e+00 0.0000000e+00 
5.9266667e+00 6.0300000e+00 0.0000000e+00 
5.9533333e+00 5.9700000e+00 0.0000000e+00 
5.9533333e+00 5.9900000e+00 0.0000000e+00 
5.9533333e+00 6.0100000e+00 0.0000000e+00 
5.9533333e+00 6.0300000e+00 0.0000000e+00 
5.9800000e+00 5.9700000e+00 0.0000000e+00 
5.9800000e+00 5.9900000e+00 0.0000000e+00 
5.9800000e+00 6.0100000e+00 0.0000000e+00 
5.9800000e+00 6.0300000e+00 0.0000000e+00 
6.0066667e+00 5.9700000e+00 0.0000000e+00 
6.0066667e+00 5.9900000e+00 0.0000000e+00 
6.0066667e+00 6.0100000e+00 0.0000000e+00 
6.0066667e+00 6.0300000e+00 0.0000000e+00 
6.0333333e+00 5.9700000e+00 0.0000000e+00 
6.0333333e+00 5.9900000e+00 0.0000000e+00 
6.0333333e+00 6.0100000e+00 0.0000000e+00 
6.0333333e+00 6.0300000e+00 0.0000000e+00 
6.0600000e+00 5.9700000e+00 0.0000000e+00 
6.0600000e+00 5.9900000e+00 0.0000000e+00 
6.0600000e+00 6.0100000e+00 0.0000000e+00 
6.0600000e+00 6.0300000e+00 0.0000000e+00 
6.0866667e+00 5.9700000e+00 0.0000000e+00 
6.0866667e+00 5.9900000e+00 0.0000000e+00 
6.0866667e+00 6.0100000e+00 0.0000000e+00 
6.0866667e+00 6.0300000e+00 0.0000000e+00 
6.1133333e+00 5.9700000e+00 0.0000000e+00 
6.1133333e+00 5.9900000e+00 0.0000000e+00 
6.1133333e+00 6.0100000e+00 0.0000000e+00 
6.1133333e+00 6.0300000e+00 0.0000000e+00 
6.1400000e+00 5.9700000e+00 0.0000000e+00 
6.1400000e+00 5.9900000e+00 0.0000000e+00 
6.1400000e+00 6.0100000e+00 0.0000000e+00 
6.1400000e+00 6.0300000e+00 0.0000000e+00 
6.1666667e+00 5.9700000e+00 0.0000000e+00 
6.1666667e+00 5.9900000e+00 0.0000000e+00 
6.1666667e+00 6.0100000e+00 0.0000000e+00 
6.1666667e+00 6.0300000e+00 0.0000000e+00 
6.1933333e+00 5.9700000e+00 0.0000000e+00 
6.1933333e+00 5.9900000e+00 0.0000000e+00 
6.1933333e+00 6.0100000e+00 0.0000000e+00 
6.1933333e+00 6.0300000e+00 0.0000000e+00 
6.2200000e+00 5.9700000e+00 0.0000000e+00 
6.2200000e+00 5.9900000e+00 0.0000000e+00 
6.2200000e+00 6.0100000e+00 0.0000000e+00 
6.2200000e+00 6.0300000e+00 0.0000000e+00 
6.2466667e+00 5.9700000e+00 0.0000000e+00 
6.2466667e+00 5.9900000e+00 0.0000000e+00 
6.2466667e+00 6.0100000e+00 0.0000000e+00 
6.2466667e+00 6.0300000e+00 0.0000000e+00 
6.2733333e+00 5.9700000e+00 0.0000000e+00 
6.2733333e+00 5.9900000e+00 0.0000000e+00 
6.2733333e+00 6.0100000e+00 0.0000000e+00 
6.2733333e+00 6.0300000e+00 0.0000000e+00 
6.3000000e+00 5.9700000e+00 0.0000000e+00 
6.3000000e+00 5.9900000e+00 0.0000000e+00 
6.3000000e+00 6.0100000e+00 0.0000000e+00 
6.3000000e+00 6.0300000e+00 0.0000000e+00 
6.3266667e+00 5.9700000e+00 0.0000000e+00 
6.3266667e+00 5.9900000e+00 0.0000000e+00 
6.3266667e+00 6.0100000e+00 0.0000000e+00 
6.3266667e+00 6.0300000e+00 0.0000000e+00 
6.3533333e+00 5.9700000e+00 0.0000000e+00 
6.3533333e+00 5.9900000e+00 0.0000000e+00 
6.3533333e+00 6.0100000e+00 0.0000000e+00 
6.3533333e+00 6.0300000e+00 0.0000000e+00 
6.3800000e+00 5.9700000e+00 0.0000000e+00 
6.3800000e+00 5.9900000e+00 0.0000000e+00 
6.3800000e+00 6.0100000e+00 0.0000000e+00 
6.3800000e+00 6.0300000e+00 0.0000000e+00 
6.4066667e+00 5.9700000e+00 0.0000000e+00 
6.4066667e+00 5.9900000e+00 0.0000000e+00 
6.4066667e+00 6.0100000e+00 0.0000000e+00 
6.4066667e+00 6.0300000e+00 0.0000000e+00 
6.4333333e+00 5.9700000e+00 0.0000000e+00 
6.4333333e+00 5.9900000e+00 0.0000000e+00 
6.4333333e+00 6.0100000e+00 0.0000000e+00 
6.4333333e+00 6.0300000e+00 0.0000000e+00 
6.4600000e+00 5.9700000e+00 0.0000000e+00 
6.4600000e+00 5.9900000e+00 0.0000000e+00 
6.4600000e+00 6.0100000e+00 0.0000000e+00 
6.4600000e+00 6.0300000e+00 0.0000000e+00 
6.4866667e+00 5.9700000e+00 0.0000000e+00 
6.4866667e+00 5.9900000e+00 0.0000000e+00 
6.4866667e+00 6.0100000e+00 0.0000000e+00 
6.4866667e+00 6.0300000e+00 0.0000000e+00 
6.5133333e+00 5.9700000e+00 0.0000000e+00 
6.5133333e+00 5.9900000e+00 0.0000000e+00 
6.5133333e+00 6.0100000e+00 0.0000000e+00 
6.5133333e+00 6.0300000e+00 0.0000000e+00 
6.5400000e+00 5.9700000e+00 0.0000000e+00 
6.5400000e+00 5.9900000e+00 0.0000000e+00 
6.5400000e+00 6.0100000e+00 0.0000000e+00 
6.5400000e+00 6.0300000e+00 0.0000000e+00 
6.5666667e+00 5.9700000e+00 0.0000000e+00 
6.5666667e+00 5.9900000e+00 0.0000000e+00 
6.5666667e+00 6.0100000e+00 0.0000000e+00 
6.5666667e+00 6.0300000e+00 0.0000000e+00 
6.5933333e+00 5.9700000e+00 0.0000000e+00 
6.5933333e+00 5.9900000e+00 0.0000000e+00 
6.5933333e+00 6.0100000e+00 0.0000000e+00 
6.5933333e+00 6.0300000e+00 0.0000000e+00 
6.6200000e+00 5.9700000e+00 0.0000000e+00 
6.6200000e+00 5.9900000e+00 0.0000000e+00 
6.6200000e+00 6.0100000e+00 0.0000000e+00 
6.6200000e+00 6.0300000e+00 0.0000000e+00 
6.6466667e+00 5.9700000e+00 0.0000000e+00 
6.6466667e+00 5.9900000e+00 0.0000000e+00 
6.6466667e+00 6.0100000e+00 0.0000000e+00 
6.6466667e+00 6.0300000e+00 0.0000000e+00 
6.6733333e+00 5.9700000e+00 0.0000000e+00 
6.6733333e+00 5.9900000e+00 0.0000000e+00 
6.6733333e+00 6.0100000e+00 0.0000000e+00 
6.6733333e+00 6.0300000e+00 0.0000000e+00 
6.7000000e+00 5.9700000e+00 0.0000000e+00 
6.7000000e+00 5.9900000e+00 0.0000000e+00 
6.7000000e+00 6.0100000e+00 0.0000000e+00 
6.7000000e+00 6.0300000e+00 0.0000000e+00 
6.7266667e+00 5.9700000e+00 0.0000000e+00 
6.7266667e+00 5.9900000e+00 0.0000000e+00 
6.7266667e+00 6.0100000e+00 0.0000000e+00 
6.7266667e+00 6.0300000e+00 0.0000000e+00 
6.7533333e+00 5.9700000e+00 0.0000000e+00 
6.7533333e+00 5.9900000e+00 0.0000000e+00 
6.7533333e+00 6.0100000e+00 0.0000000e+00 
6.7533333e+00 6.0300000e+00 0.0000000e+00 
6.7800000e+00 5.9700000e+00 0.0000000e+00 
6.7800000e+00 5.9900000e+00 0.0000000e+00 
6.7800000e+00 6.0100000e+00 0.0000000e+00 
6.7800000e+00 6.0300000e+00 0.0000000e+00 
6.8066667e+00 5.9700000e+00 0.0000000e+00 
6.8066667e+00 5.9900000e+00 0.0000000e+00 
6.8066667e+00 6.0100000e+00 0.0000000e+00 
6.8066667e+00 6.0300000e+00 0.0000000e+00 
6.8333333e+00 5.9700000e+00 0.0000000e+00 
6.8333333e+00 5.9900000e+00 0.0000000e+00 
6.8333333e+00 6.0100000e+00 0.0000000e+00 
6.8333333e+00 6.0300000e+00 0.0000000e+00 
6.8600000e+00 5.9700000e+00 0.0000000e+00 
6.8600000e+00 5.9900000e+00 0.0000000e+00 
6.8600000e+00 6.0100000e+00 0.0000000e+00 
6.8600000e+00 6.0300000e+00 0.0000000e+00 
6.8866667e+00 5.9700000e+00 0.0000000e+00 
6.8866667e+00 5.9900000e+00 0.0000000e+00 
6.8866667e+00 6.0100000e+00 0.0000000e+00 
6.8866667e+00 6.0300000e+00 0.0000000e+00 
6.9133333e+00 5.9700000e+00 0.0000000e+00 
6.9133333e+00 5.9900000e+00 0.0000000e+00 
6.9133333e+00 6.0100000e+00 0.0000000e+00 
6.9133333e+00 6.0300000e+00 0.0000000e+00 
6.9400000e+00 5.9700000e+00 0.0000000e+00 
6.9400000e+00 5.9900000e+00 0.0000000e+00 
6.9400000e+00 6.0100000e+00 0.0000000e+00 
6.9400000e+00 6.0300000e+00 0.0000000e+00 
6.9666667e+00 5.9700000e+00 0.0000000e+00 
6.9666667e+00 5.9900000e+00 0.0000000e+00 
6.9666667e+00 6.0100000e+00 0.0000000e+00 
6.9666667e+00 6.0300000e+00 0.0000000e+00 
6.9933333e+00 5.9700000e+00 0.0000000e+00 
6.9933333e+00 5.9900000e+00 0.0000000e+00 
6.9933333e+00 6.0100000e+00 0.0000000e+00 
6.9933333e+00 6.0300000e+00 0.0000000e+00 
7.0200000e+00 5.9700000e+00 0.0000000e+00 
7.0200000e+00 5.9900000e+00 0.0000000e+00 
[...]
POINT_DATA 604
FIELD FieldData 2
DISPLACEMENT 3 604  float
0.0000000e+00 0.0000000e+00 0.0000000e+00 
0.0000000e+00 0.0000000e+00 0.0000000e+00 
3.7595610e-05 2.0239942e-05 0.0000000e+00 
1.2464302e-05 1.2081005e-05 0.0000000e+00 
0.0000000e+00 0.0000000e+00 0.0000000e+00 
-1.1955352e-05 1.1997393e-05 0.0000000e+00 
7.8207354e-05 6.8969627e-05 0.0000000e+00 
2.6727049e-05 6.1753463e-05 0.0000000e+00 
0.0000000e+00 0.0000000e+00 0.0000000e+00 
-3.7050953e-05 1.9977851e-05 0.0000000e+00 
-2.5734670e-05 6.1600834e-05 0.0000000e+00 
1.2045131e-04 1.5541467e-04 0.0000000e+00 
-7.7239266e-05 6.8538996e-05 0.0000000e+00 
4.0811717e-05 1.4766730e-04 0.0000000e+00 
-3.9535494e-05 1.4742688e-04 0.0000000e+00 
-1.1923218e-04 1.5471083e-04 0.0000000e+00 
1.6412918e-04 2.7998966e-04 0.0000000e+00 
5.5372224e-05 2.7184211e-04 0.0000000e+00 
-5.4123918e-05 2.7146315e-04 0.0000000e+00 
-1.6296132e-04 2.7887333e-04 0.0000000e+00 
2.0917128e-04 4.4423300e-04 0.0000000e+00 
7.0231303e-05 4.3562303e-04 0.0000000e+00 
-6.9444102e-05 4.3505526e-04 0.0000000e+00 
-2.0849101e-04 4.4255311e-04 0.0000000e+00 
2.5547331e-04 6.4952922e-04 0.0000000e+00 
8.5321535e-05 6.4040945e-04 0.0000000e+00 
-8.5567461e-05 6.3959849e-04 0.0000000e+00 
-2.5585587e-04 6.4712278e-04 0.0000000e+00 
3.0292992e-04 8.9724863e-04 0.0000000e+00 
1.0055581e-04 8.8756527e-04 0.0000000e+00 
-1.0255830e-04 8.8645225e-04 0.0000000e+00 
-3.0510125e-04 8.9393882e-04 0.0000000e+00 
3.5142898e-04 1.1887336e-03 0.0000000e+00 
1.1584230e-04 1.1784283e-03 0.0000000e+00 
-1.2048838e-04 1.1769496e-03 0.0000000e+00 
-3.5627854e-04 1.1843295e-03 0.0000000e+00 
4.0085222e-04 1.5252994e-03 0.0000000e+00 
1.3108280e-04 1.5143093e-03 0.0000000e+00 
-1.3943556e-04 1.5123966e-03 0.0000000e+00 
-4.0944531e-04 1.5195962e-03 0.0000000e+00 
4.5107436e-04 1.9082344e-03 0.0000000e+00 
1.4617291e-04 1.8964918e-03 0.0000000e+00 
-1.5948395e-04 1.8940722e-03 0.0000000e+00 
-4.6466523e-04 1.9010131e-03 0.0000000e+00 
5.0196490e-04 2.3387996e-03 0.0000000e+00 
1.6100172e-04 2.3262324e-03 0.0000000e+00 
-1.8072382e-04 2.3232282e-03 0.0000000e+00 
-5.2200823e-04 2.3298275e-03 0.0000000e+00 
5.5338512e-04 2.8182288e-03 0.0000000e+00 
1.7545234e-04 2.8047600e-03 0.0000000e+00 
-2.0325172e-04 2.8010890e-03 0.0000000e+00 
-5.8155012e-04 2.8072589e-03 0.0000000e+00 
6.0519210e-04 3.3477280e-03 0.0000000e+00 
1.8940141e-04 3.3332761e-03 0.0000000e+00 
-2.2717029e-04 3.3288514e-03 0.0000000e+00 
-6.4337317e-04 3.3344997e-03 0.0000000e+00 
6.5723550e-04 3.9284763e-03 0.0000000e+00 
2.0271972e-04 3.9129551e-03 0.0000000e+00 
-2.5258843e-04 3.9076852e-03 0.0000000e+00 
-7.0756569e-04 3.9127149e-03 0.0000000e+00 
7.0936005e-04 4.5616249e-03 0.0000000e+00 
2.1527175e-04 4.5449438e-03 0.0000000e+00 
-2.7962109e-04 4.5387327e-03 0.0000000e+00 
-7.7422224e-04 4.5430424e-03 0.0000000e+00 
7.6140340e-04 5.2482981e-03 0.0000000e+00 
2.2691597e-04 5.2303619e-03 0.0000000e+00 
-3.0838930e-04 5.2231090e-03 0.0000000e+00 
-8.4344322e-04 5.2265928e-03 0.0000000e+00 
8.1319715e-04 5.9895925e-03 0.0000000e+00 
2.3750495e-04 5.9703015e-03 0.0000000e+00 
-3.3901997e-04 5.9619019e-03 0.0000000e+00 
-9.1533498e-04 5.9644493e-03 0.0000000e+00 
8.6456812e-04 6.7865771e-03 0.0000000e+00 
2.4688527e-04 6.7658274e-03 0.0000000e+00 
-3.7164592e-04 6.7561716e-03 0.0000000e+00 
-9.9000989e-04 6.7576679e-03 0.0000000e+00 
9.1533610e-04 7.6402938e-03 0.0000000e+00 
2.5489790e-04 7.6179769e-03 0.0000000e+00 
-4.0640578e-04 7.6069512e-03 0.0000000e+00 
-1.0675860e-03 7.6072772e-03 0.0000000e+00 
9.6531605e-04 8.5517566e-03 0.0000000e+00 
2.6137830e-04 8.5277599e-03 0.0000000e+00 
-4.4344388e-04 8.5152465e-03 0.0000000e+00 
-1.1481873e-03 8.5142791e-03 0.0000000e+00 
1.0143189e-03 9.5219531e-03 0.0000000e+00 
2.6615628e-04 9.4961596e-03 0.0000000e+00 
-4.8291019e-04 9.4820364e-03 0.0000000e+00 
-1.2319438e-03 9.4796481e-03 0.0000000e+00 
1.0621486e-03 1.0551843e-02 0.0000000e+00 
2.6905620e-04 1.0524133e-02 0.0000000e+00 
-5.2496010e-04 1.0508274e-02 0.0000000e+00 
-1.3189906e-03 1.0504333e-02 0.0000000e+00 
1.1086029e-03 1.1642361e-02 0.0000000e+00 
2.6989700e-04 1.1612608e-02 0.0000000e+00 
-5.6975433e-04 1.1594883e-02 0.0000000e+00 
-1.4094677e-03 1.1589255e-02 0.0000000e+00 
1.1534761e-03 1.2794411e-02 0.0000000e+00 
2.6849192e-04 1.2762488e-02 0.0000000e+00 
-6.1745864e-04 1.2742763e-02 0.0000000e+00 
-1.5035205e-03 1.2735307e-02 0.0000000e+00 
1.1965532e-03 1.4008871e-02 0.0000000e+00 
2.6464956e-04 1.3974645e-02 0.0000000e+00 
-6.6824384e-04 1.3952783e-02 0.0000000e+00 
-1.6012984e-03 1.3943357e-02 0.0000000e+00 
1.2376185e-03 1.5286590e-02 0.0000000e+00 
2.5817331e-04 1.5249926e-02 0.0000000e+00 
-7.2228547e-04 1.5225786e-02 0.0000000e+00 
-1.7029564e-03 1.5214243e-02 0.0000000e+00 
1.2764498e-03 1.6628391e-02 0.0000000e+00 
2.4886235e-04 1.6589149e-02 0.0000000e+00 
-7.7976388e-04 1.6562586e-02 0.0000000e+00 
-1.8086540e-03 1.6548777e-02 0.0000000e+00 
1.3128218e-03 1.8035065e-02 0.0000000e+00 
2.3651116e-04 1.7993104e-02 0.0000000e+00 
-8.4086378e-04 1.7963971e-02 0.0000000e+00 
-1.9185553e-03 1.7947741e-02 0.0000000e+00 
1.3465034e-03 1.9507381e-02 0.0000000e+00 
2.2091012e-04 1.9462555e-02 0.0000000e+00 
-9.0577426e-04 1.9430700e-02 0.0000000e+00 
-2.0328286e-03 1.9411894e-02 0.0000000e+00 
1.3772608e-03 2.1046076e-02 0.0000000e+00 
2.0184529e-04 2.0998235e-02 0.0000000e+00 
-9.7468842e-04 2.0963505e-02 0.0000000e+00 
-2.1516464e-03 2.0941964e-02 0.0000000e+00 
1.4048549e-03 2.2651860e-02 0.0000000e+00 
1.7909878e-04 2.2600854e-02 0.0000000e+00 
-1.0478033e-03 2.2563092e-02 0.0000000e+00 
-2.2751848e-03 2.2538652e-02 0.0000000e+00 
1.4290431e-03 2.4325416e-02 0.0000000e+00 
1.5244922e-04 2.4271091e-02 0.0000000e+00 
-1.1253194e-03 2.4230137e-02 0.0000000e+00 
-2.4036231e-03 2.4202634e-02 0.0000000e+00 
1.4495802e-03 2.6067397e-02 0.0000000e+00 
1.2167155e-04 2.6009597e-02 0.0000000e+00 
-1.2074408e-03 2.5965289e-02 0.0000000e+00 
-2.5371448e-03 2.5934556e-02 0.0000000e+00 
1.4662164e-03 2.7878431e-02 0.0000000e+00 
8.6537740e-05 2.7816995e-02 0.0000000e+00 
-1.2943747e-03 2.7769170e-02 0.0000000e+00 
-2.6759358e-03 2.7735036e-02 0.0000000e+00 
1.4786998e-03 2.9759113e-02 0.0000000e+00 
4.6817144e-05 2.9693882e-02 0.0000000e+00 
-1.3863313e-03 2.9642373e-02 0.0000000e+00 
-2.8201856e-03 2.9604666e-02 0.0000000e+00 
1.4867789e-03 3.1710016e-02 0.0000000e+00 
2.2760865e-06 3.1640826e-02 0.0000000e+00 
-1.4835236e-03 3.1585464e-02 0.0000000e+00 
-2.9700873e-03 3.1544011e-02 0.0000000e+00 
1.4901963e-03 3.3731681e-02 0.0000000e+00 
-4.7321502e-05 3.3658368e-02 0.0000000e+00 
-1.5861672e-03 3.3598983e-02 0.0000000e+00 
-3.1258356e-03 3.3553608e-02 0.0000000e+00 
1.4886914e-03 3.5824625e-02 0.0000000e+00 
-1.0221431e-04 3.5747021e-02 0.0000000e+00 
-1.6944798e-03 3.5683442e-02 0.0000000e+00 
-3.2876268e-03 3.5633968e-02 0.0000000e+00 
1.4820037e-03 3.7989332e-02 0.0000000e+00 
-1.6264380e-04 3.7907271e-02 0.0000000e+00 
-1.8086808e-03 3.7839325e-02 0.0000000e+00 
-3.4556592e-03 3.7785572e-02 0.0000000e+00 
1.4698646e-03 4.0226260e-02 0.0000000e+00 
-2.2885250e-04 4.0139574e-02 0.0000000e+00 
-1.9289913e-03 4.0067085e-02 0.0000000e+00 
-3.6301312e-03 4.0008874e-02 0.0000000e+00 
1.4520104e-03 4.2535835e-02 0.0000000e+00 
-3.0108478e-04 4.2444353e-02 0.0000000e+00 
-2.0556336e-03 4.2367148e-02 0.0000000e+00 
-3.8112436e-03 4.2304298e-02 0.0000000e+00 
1.4281739e-03 4.4918456e-02 0.0000000e+00 
-3.7958552e-04 4.4822008e-02 0.0000000e+00 
-2.1888312e-03 4.4739910e-02 0.0000000e+00 
-3.9991981e-03 4.4672240e-02 0.0000000e+00 
1.3980888e-03 4.7374490e-02 0.0000000e+00 
-4.6460055e-04 4.7272907e-02 0.0000000e+00 
-2.3288082e-03 4.7185740e-02 0.0000000e+00 
-4.1941975e-03 4.7113067e-02 0.0000000e+00 
1.3614863e-03 4.9904278e-02 0.0000000e+00 
-5.5637603e-04 4.9797388e-02 0.0000000e+00 
-2.4757892e-03 4.9704976e-02 0.0000000e+00 
-4.3964445e-03 4.9627118e-02 0.0000000e+00 
1.3180991e-03 5.2508130e-02 0.0000000e+00 
-6.5515851e-04 5.2395762e-02 0.0000000e+00 
-2.6299989e-03 5.2297929e-02 0.0000000e+00 
-4.6061420e-03 5.2214703e-02 0.0000000e+00 
1.2676583e-03 5.5186327e-02 0.0000000e+00 
-7.6119461e-04 5.5068311e-02 0.0000000e+00 
-2.7916619e-03 5.4964880e-02 0.0000000e+00 
-4.8234926e-03 5.4876105e-02 0.0000000e+00 
1.2098953e-03 5.7939121e-02 0.0000000e+00 
-8.7473023e-04 5.7815287e-02 0.0000000e+00 
-2.9610021e-03 5.7706081e-02 0.0000000e+00 
-5.0486977e-03 5.7611576e-02 0.0000000e+00 
1.1445434e-03 6.0766731e-02 0.0000000e+00 
-9.9601074e-04 6.0636910e-02 0.0000000e+00 
-3.1382423e-03 6.0521756e-02 0.0000000e+00 
-5.2819581e-03 6.0421338e-02 0.0000000e+00 
1.0713354e-03 6.3669351e-02 0.0000000e+00 
-1.1252802e-03 6.3533373e-02 0.0000000e+00 
-3.3236044e-03 6.3412097e-02 0.0000000e+00 
-5.5234729e-03 6.3305587e-02 0.0000000e+00 
9.9000681e-04 6.6647138e-02 0.0000000e+00 
-1.2627815e-03 6.6504838e-02 0.0000000e+00 
-3.5173085e-03 6.6377267e-02 0.0000000e+00 
-5.7734398e-03 6.6264486e-02 0.0000000e+00 
9.0029337e-04 6.9700224e-02 0.0000000e+00 
-1.4087552e-03 6.9551437e-02 0.0000000e+00 
-3.7195727e-03 6.9417398e-02 0.0000000e+00 
-6.0320542e-03 6.9298170e-02 0.0000000e+00 
8.0193338e-04 7.2828708e-02 0.0000000e+00 
-1.5634394e-03 7.2673269e-02 0.0000000e+00 
-3.9306132e-03 7.2532595e-02 0.0000000e+00 
-6.2995096e-03 7.2406743e-02 0.0000000e+00 
6.9467342e-04 7.6032660e-02 0.0000000e+00 
-1.7270700e-03 7.5870407e-02 0.0000000e+00 
-4.1506434e-03 7.5722930e-02 0.0000000e+00 
-6.5759983e-03 7.5590282e-02 0.0000000e+00 
5.7825646e-04 7.9312121e-02 0.0000000e+00 
-1.8998799e-03 7.9142895e-02 0.0000000e+00 
-4.3798743e-03 7.8988449e-02 0.0000000e+00 
-6.8617084e-03 7.8848833e-02 0.0000000e+00 
4.5242862e-04 8.2667100e-02 0.0000000e+00 
-2.0820995e-03 8.2490745e-02 0.0000000e+00 
-4.6185132e-03 8.2329167e-02 0.0000000e+00 
-7.1568239e-03 8.2182414e-02 0.0000000e+00 
3.1694127e-04 8.6097575e-02 0.0000000e+00 
-2.2739568e-03 8.5913937e-02 0.0000000e+00 
-4.8667635e-03 8.5745068e-02 0.0000000e+00 
-7.4615246e-03 8.5591012e-02 0.0000000e+00 
1.7154098e-04 8.9603492e-02 0.0000000e+00 
-2.4756749e-03 8.9412420e-02 0.0000000e+00 
-5.1248246e-03 8.9236104e-02 0.0000000e+00 
-7.7759847e-03 8.9074582e-02 0.0000000e+00 
1.5987559e-05 9.3184759e-02 0.0000000e+00 
-2.6874727e-03 9.2986108e-02 0.0000000e+00 
-5.3928908e-03 9.2802192e-02 0.0000000e+00 
-8.1003744e-03 9.2633045e-02 0.0000000e+00 
-1.4995685e-04 9.6841257e-02 0.0000000e+00 
-2.9095638e-03 9.6634884e-02 0.0000000e+00 
-5.6711517e-03 9.6443219e-02 0.0000000e+00 
-8.4348596e-03 9.6266292e-02 0.0000000e+00 
-3.2652382e-04 1.0057283e-01 0.0000000e+00 
-3.1421564e-03 1.0035860e-01 0.0000000e+00 
-5.9597918e-03 1.0015904e-01 0.0000000e+00 
-8.7796002e-03 9.9974182e-02 0.0000000e+00 
-5.1394051e-04 1.0437930e-01 0.0000000e+00 
-3.3854536e-03 1.0415707e-01 0.0000000e+00 
-6.2589895e-03 1.0394948e-01 0.0000000e+00 
-9.1347508e-03 1.0375654e-01 0.0000000e+00 
-7.1242876e-04 1.0826045e-01 0.0000000e+00 
-3.6396521e-03 1.0803009e-01 0.0000000e+00 
-6.5689173e-03 1.0781433e-01 0.0000000e+00 
-9.5004592e-03 1.0761317e-01 0.0000000e+00 
-9.2220293e-04 1.1221601e-01 0.0000000e+00 
-3.9049425e-03 1.1197741e-01 0.0000000e+00 
-6.8897411e-03 1.1175334e-01 0.0000000e+00 
-9.8768663e-03 1.1154383e-01 0.0000000e+00 
-1.1434721e-03 1.1624571e-01 0.0000000e+00 
-4.1815083e-03 1.1599874e-01 0.0000000e+00 
-7.2216196e-03 1.1576625e-01 0.0000000e+00 
-1.0264106e-02 1.1554824e-01 0.0000000e+00 
-1.3764382e-03 1.2034923e-01 0.0000000e+00 
-4.4695248e-03 1.2009378e-01 0.0000000e+00 
-7.5647045e-03 1.1985274e-01 0.0000000e+00 
-1.0662306e-02 1.1962612e-01 0.0000000e+00 
-1.6212876e-03 1.2452622e-01 0.0000000e+00 
-4.7691606e-03 1.2426218e-01 0.0000000e+00 
-7.9191400e-03 1.2401248e-01 0.0000000e+00 
-1.1071587e-02 1.2377711e-01 0.0000000e+00 
-1.8782079e-03 1.2877629e-01 0.0000000e+00 
-5.0805762e-03 1.2850356e-01 0.0000000e+00 
-8.2850626e-03 1.2824509e-01 0.0000000e+00 
-1.1492061e-02 1.2800087e-01 0.0000000e+00 
-2.1473760e-03 1.3309904e-01 0.0000000e+00 
-5.4039246e-03 1.3281751e-01 0.0000000e+00 
-8.6626006e-03 1.3255017e-01 0.0000000e+00 
-1.1923831e-02 1.3229699e-01 0.0000000e+00 
-2.4289603e-03 1.3749400e-01 0.0000000e+00 
-5.7393512e-03 1.3720360e-01 0.0000000e+00 
-9.0518730e-03 1.3692729e-01 0.0000000e+00 
-1.2366991e-02 1.3666505e-01 0.0000000e+00 
-2.7231297e-03 1.4196069e-01 0.0000000e+00 
-6.0869914e-03 1.4166133e-01 0.0000000e+00 
-9.4529895e-03 1.4137597e-01 0.0000000e+00 
-1.2821622e-02 1.4110457e-01 0.0000000e+00 
-3.0300330e-03 1.4649860e-01 0.0000000e+00 
-6.4469714e-03 1.4619021e-01 0.0000000e+00 
-9.8660499e-03 1.4589571e-01 0.0000000e+00 
-1.3287800e-02 1.4561507e-01 0.0000000e+00 
-3.3498107e-03 1.5110716e-01 0.0000000e+00 
-6.8194067e-03 1.5078967e-01 0.0000000e+00 
-1.0291144e-02 1.5048597e-01 0.0000000e+00 
-1.3765588e-02 1.5019599e-01 0.0000000e+00 
-3.6825927e-03 1.5578579e-01 0.0000000e+00 
-7.2044021e-03 1.5545914e-01 0.0000000e+00 
-1.0728353e-02 1.5514616e-01 0.0000000e+00 
-1.4255043e-02 1.5484679e-01 0.0000000e+00 
-4.0284979e-03 1.6053385e-01 0.0000000e+00 
-7.6020519e-03 1.6019800e-01 0.0000000e+00 
-1.1177745e-02 1.5987569e-01 0.0000000e+00 
-1.4756208e-02 1.5956686e-01 0.0000000e+00 
-4.3876344e-03 1.6535070e-01 0.0000000e+00 
-8.0124397e-03 1.6500560e-01 0.0000000e+00 
-1.1639380e-02 1.6467391e-01 0.0000000e+00 
-1.5269117e-02 1.6435556e-01 0.0000000e+00 
-4.7600992e-03 1.7023565e-01 0.0000000e+00 
-8.4356376e-03 1.6988126e-01 0.0000000e+00 
-1.2113305e-02 1.6954015e-01 0.0000000e+00 
-1.5793795e-02 1.6921224e-01 0.0000000e+00 
-5.1459767e-03 1.7518797e-01 0.0000000e+00 
-8.8717065e-03 1.7482426e-01 0.0000000e+00 
-1.2599557e-02 1.7447370e-01 0.0000000e+00 
-1.6330253e-02 1.7413619e-01 0.0000000e+00 
-5.5453397e-03 1.8020690e-01 0.0000000e+00 
-9.3206956e-03 1.7983387e-01 0.0000000e+00 
-1.3098161e-02 1.7947383e-01 0.0000000e+00 
-1.6878494e-02 1.7912668e-01 0.0000000e+00 
-5.9582493e-03 1.8529166e-01 0.0000000e+00 
-9.7826422e-03 1.8490930e-01 0.0000000e+00 
-1.3609132e-02 1.8453977e-01 0.0000000e+00 
-1.7438507e-02 1.8418296e-01 0.0000000e+00 
-6.3847534e-03 1.9044144e-01 0.0000000e+00 
-1.0257572e-02 1.9004974e-01 0.0000000e+00 
-1.4132472e-02 1.8967071e-01 0.0000000e+00 
-1.8010273e-02 1.8930424e-01 0.0000000e+00 
-6.8248881e-03 1.9565538e-01 0.0000000e+00 
-1.0745497e-02 1.9525435e-01 0.0000000e+00 
-1.4668172e-02 1.9486583e-01 0.0000000e+00 
-1.8593760e-02 1.9448969e-01 0.0000000e+00 
-7.2786771e-03 2.0093261e-01 0.0000000e+00 
-1.1246418e-02 2.0052227e-01 0.0000000e+00 
-1.5216209e-02 2.0012427e-01 0.0000000e+00 
-1.9188923e-02 1.9973847e-01 0.0000000e+00 
-7.7461230e-03 2.0627222e-01 0.0000000e+00 
-1.1760322e-02 2.0585260e-01 0.0000000e+00 
-1.5776551e-02 2.0544514e-01 0.0000000e+00 
-1.9795710e-02 2.0504969e-01 0.0000000e+00 
-8.2272256e-03 2.1167329e-01 0.0000000e+00 
-1.2287185e-02 2.1124441e-01 0.0000000e+00 
-1.6349153e-02 2.1082752e-01 0.0000000e+00 
-2.0414057e-02 2.1042245e-01 0.0000000e+00 
-8.7219651e-03 2.1713484e-01 0.0000000e+00 
-1.2826970e-02 2.1669676e-01 0.0000000e+00 
-1.6933958e-02 2.1627048e-01 0.0000000e+00 
-2.1043884e-02 2.1585583e-01 0.0000000e+00 
-9.2303131e-03 2.2265590e-01 0.0000000e+00 
-1.3379629e-02 2.2220867e-01 0.0000000e+00 
-1.7530896e-02 2.2177305e-01 0.0000000e+00 
-2.1685101e-02 2.2134885e-01 0.0000000e+00 
-9.7522371e-03 2.2823544e-01 0.0000000e+00 
-1.3945101e-02 2.2777913e-01 0.0000000e+00 
-1.8139887e-02 2.2733422e-01 0.0000000e+00 
-2.2337606e-02 2.2690053e-01 0.0000000e+00 
-1.0287680e-02 2.3387243e-01 0.0000000e+00 
-1.4523312e-02 2.3340710e-01 0.0000000e+00 
-1.8760834e-02 2.3295298e-01 0.0000000e+00 
-2.3001284e-02 2.3250986e-01 0.0000000e+00 
-1.0836570e-02 2.3956578e-01 0.0000000e+00 
-1.5114173e-02 2.3909153e-01 0.0000000e+00 
-1.9393633e-02 2.3862827e-01 0.0000000e+00 
-2.3676011e-02 2.3817580e-01 0.0000000e+00 
-1.1398825e-02 2.4531442e-01 0.0000000e+00 
-1.5717584e-02 2.4483132e-01 0.0000000e+00 
-2.0038165e-02 2.4435901e-01 0.0000000e+00 
-2.4361651e-02 2.4389727e-01 0.0000000e+00 
-1.1974349e-02 2.5111722e-01 0.0000000e+00 
-1.6333431e-02 2.5062538e-01 0.0000000e+00 
-2.0694300e-02 2.5014411e-01 0.0000000e+00 
-2.5058058e-02 2.4967319e-01 0.0000000e+00 
-1.2563027e-02 2.5697304e-01 0.0000000e+00 
-1.6961588e-02 2.5647257e-01 0.0000000e+00 
-2.1361898e-02 2.5598245e-01 0.0000000e+00 
-2.5765077e-02 2.5550245e-01 0.0000000e+00 
-1.3164738e-02 2.6288074e-01 0.0000000e+00 
-1.7601918e-02 2.6237176e-01 0.0000000e+00 
-2.2040807e-02 2.6187290e-01 0.0000000e+00 
-2.6482544e-02 2.6138392e-01 0.0000000e+00 
-1.3779344e-02 2.6883914e-01 0.0000000e+00 
-1.8254270e-02 2.6832176e-01 0.0000000e+00 
-2.2730864e-02 2.6781428e-01 0.0000000e+00 
-2.7210283e-02 2.6731646e-01 0.0000000e+00 
-1.4406698e-02 2.7484705e-01 0.0000000e+00 
-1.8918484e-02 2.7432142e-01 0.0000000e+00 
-2.3431900e-02 2.7380545e-01 0.0000000e+00 
-2.7948111e-02 2.7329889e-01 0.0000000e+00 
-1.5046633e-02 2.8090329e-01 0.0000000e+00 
-1.9594389e-02 2.8036953e-01 0.0000000e+00 
-2.4143730e-02 2.7984520e-01 0.0000000e+00 
-2.8695838e-02 2.7933005e-01 0.0000000e+00 
-1.5698981e-02 2.8700663e-01 0.0000000e+00 
-2.0281802e-02 2.8646489e-01 0.0000000e+00 
-2.4866165e-02 2.8593235e-01 0.0000000e+00 
-2.9453264e-02 2.8540875e-01 0.0000000e+00 
-1.6363555e-02 2.9315584e-01 0.0000000e+00 
-2.0980531e-02 2.9260628e-01 0.0000000e+00 
-2.5599004e-02 2.9206568e-01 0.0000000e+00 
-3.0220178e-02 2.9153377e-01 0.0000000e+00 
-1.7040162e-02 2.9934972e-01 0.0000000e+00 
-2.1690377e-02 2.9879249e-01 0.0000000e+00 
-2.6342038e-02 2.9824398e-01 0.0000000e+00 
-3.0996362e-02 2.9770392e-01 0.0000000e+00 
-1.7728607e-02 3.0558698e-01 0.0000000e+00 
-2.2411128e-02 3.0502226e-01 0.0000000e+00 
-2.7095046e-02 3.0446601e-01 0.0000000e+00 
-3.1781588e-02 3.0391796e-01 0.0000000e+00 
-1.8428675e-02 3.1186639e-01 0.0000000e+00 
-2.3142565e-02 3.1129434e-01 0.0000000e+00 
-2.7857803e-02 3.1073052e-01 0.0000000e+00 
-3.2575623e-02 3.1017465e-01 0.0000000e+00 
-1.9140138e-02 3.1818668e-01 0.0000000e+00 
-2.3884457e-02 3.1760748e-01 0.0000000e+00 
-2.8630073e-02 3.1703627e-01 0.0000000e+00 
-3.3378227e-02 3.1647275e-01 0.0000000e+00 
-1.9862766e-02 3.2454658e-01 0.0000000e+00 
-2.4636566e-02 3.2396041e-01 0.0000000e+00 
-2.9411614e-02 3.2338198e-01 0.0000000e+00 
-3.4189153e-02 3.2281101e-01 0.0000000e+00 
-2.0596313e-02 3.3094480e-01 0.0000000e+00 
-2.5398647e-02 3.3035186e-01 0.0000000e+00 
-3.0202178e-02 3.2976641e-01 0.0000000e+00 
-3.5008151e-02 3.2918816e-01 0.0000000e+00 
-2.1340528e-02 3.3738009e-01 0.0000000e+00 
-2.6170446e-02 3.3678056e-01 0.0000000e+00 
-3.1001509e-02 3.3618828e-01 0.0000000e+00 
-3.5834965e-02 3.3560295e-01 0.0000000e+00 
-2.2095151e-02 3.4385116e-01 0.0000000e+00 
-2.6951702e-02 3.4324524e-01 0.0000000e+00 
-3.1809348e-02 3.4264633e-01 0.0000000e+00 
-3.6669334e-02 3.4205411e-01 0.0000000e+00 
-2.2859913e-02 3.5035673e-01 0.0000000e+00 
-2.7742150e-02 3.4974463e-01 0.0000000e+00 
-3.2625431e-02 3.4913928e-01 0.0000000e+00 
-3.7510996e-02 3.4854038e-01 0.0000000e+00 
-2.3634542e-02 3.5689555e-01 0.0000000e+00 
-2.8541519e-02 3.5627746e-01 0.0000000e+00 
-3.3449488e-02 3.5566587e-01 0.0000000e+00 
-3.8359687e-02 3.5506049e-01 0.0000000e+00 
-2.4418756e-02 3.6346633e-01 0.0000000e+00 
-2.9349532e-02 3.6284246e-01 0.0000000e+00 
-3.4281250e-02 3.6222485e-01 0.0000000e+00 
-3.9215138e-02 3.6161320e-01 0.0000000e+00 
-2.5212272e-02 3.7006783e-01 0.0000000e+00 
-3.0165911e-02 3.6943839e-01 0.0000000e+00 
-3.5120441e-02 3.6881496e-01 0.0000000e+00 
-4.0077083e-02 3.6819725e-01 0.0000000e+00 
-2.6014797e-02 3.7669880e-01 0.0000000e+00 
-3.0990371e-02 3.7606400e-01 0.0000000e+00 
-3.5966786e-02 3.7543496e-01 0.0000000e+00 
-4.0945252e-02 3.7481139e-01 0.0000000e+00 
-2.6826042e-02 3.8335801e-01 0.0000000e+00 
-3.1822628e-02 3.8271804e-01 0.0000000e+00 
-3.6820006e-02 3.8208361e-01 0.0000000e+00 
-4.1819376e-02 3.8145441e-01 0.0000000e+00 
-2.7645706e-02 3.9004422e-01 0.0000000e+00 
-3.2662395e-02 3.8939931e-01 0.0000000e+00 
-3.7679823e-02 3.8875969e-01 0.0000000e+00 