# vtk DataFile Version 4.0
vtk output
ASCII
DATASET UNSTRUCTURED_GRID
POINTS 604 float
5.5000000e+00 5.9700000e+00 0.0000000e+00 
5.5000000e+00 5.9900000e+00 0.0000000e+00 
5.5266667e+00 5.9700000e+00 0.0000000e+00 
5.5266667e+00 5.9900000e+00 0.0000000e+00 
5.5000000e+00 6.0100000e+00 0.0000000e+00 
5.5266667e+00 6.0100000e+00 0.0000000e+00 
5.5533333e+00 5.9700000e+00 0.0000000e+00 
5.5533333e+00 5.9900000e+00 0.0000000e+00 
5.5000000e+00 6.0300000e+00 0.0000000e+00 
5.5266667e+00 6.0300000e+00 0.0000000e+00 
5.5533333e+00 6.0100000e+00 0.0000000e+00 
5.5800000e+00 5.9700000e+00 0.0000000e+00 
5.5533333e+00 6.0300000e+00 0.0000000e+00 
5.5800000e+00 5.9900000e+00 0.0000000e+00 
5.5800000e+00 6.0100000e+00 0.0000000e+00 
5.5800000e+00 6.0300000e+00 0.0000000e+00 
5.6066667e+00 5.9700000e+00 0.0000000e+00 
5.6066667e+00 5.9900000e+00 0.0000000e+00 
5.6066667e+00 6.0100000e+00 0.0000000e+00 
5.6066667e+00 6.0300000e+00 0.0000000e+00 
5.6333333e+00 5.9700000e+00 0.0000000e+00 
5.6333333e+00 5.9900000e+00 0.0000000e+00 
5.6333333e+00 6.0100000e+00 0.0000000e+00 
5.6333333e+00 6.0300000e+00 0.0000000e+00 
5.6600000e+00 5.9700000e+00 0.0000000e+00 
5.6600000e+00 5.9900000e+00 0.0000000e+00 
5.6600000e+00 6.0100000e+00 0.0000000e+00 
5.6600000e+00 6.0300000e+00 0.0000000e+00 
5.6866667e+00 5.9700000e+00 0.0000000e+00 
5.6866667e+00 5.9900000e+00 0.0000000e+00 
5.6866667e+00 6.0100000e+00 0.0000000e+00 
5.6866667e+00 6.0300000e+00 0.0000000e+00 
5.7133333e+00 5.9700000e+00 0.0000000e+00 
5.7133333e+00 5.9900000e+00 0.0000000e+00 
5.7133333e+00 6.0100000e+00 0.0000000e+00 
5.7133333e+00 6.0300000e+00 0.0000000e+00 
5.7400000e+00 5.9700000e+00 0.0000000e+00 
5.7400000e+00 5.9900000e+00 0.0000000e+00 
5.7400000e+00 6.0100000e+00 0.0000000e+00 
5.7400000e+00 6.0300000e+00 0.0000000e+00 
5.7666667e+00 5.9700000e+00 0.0000000e+00 
5.7666667e+00 5.9900000e+00 0.0000000e+00 
5.7666667e+00 6.0100000e+00 0.0000000e+00 
5.7666667e+00 6.0300000e+00 0.0000000e+00 
5.7933333e+00 5.9700000e+00 0.0000000e+00 
5.7933333e+00 5.9900000e+00 0.0000000e+00 
5.7933333e+00 6.0100000e+00 0.0000000e+00 
5.7933333e+00 6.0300000e+00 0.0000000e+00 
5.8200000e+00 5.9700000e+00 0.0000000e+00 
5.8200000e+00 5.9900000e+00 0.0000000e+00 
5.8200000e+00 6.0100000e+00 0.0000000e+00 
5.8200000e+00 6.0300000e+00 0.0000000e+00 
5.8466667e+00 5.9700000e+00 0.0000000e+00 
5.8466667e+00 5.9900000e+00 0.0000000e+00 
5.8466667e+00 6.0100000e+00 0.0000000e+00 
5.8466667e+00 6.0300000e+00 0.0000000e+00 
5.8733333e+00 5.9700000e+00 0.0000000e+00 
5.8733333e+00 5.9900000e+00 0.0000000e+00 
5.8733333e+00 6.0100000e+00 0.0000000e+00 
5.8733333e+00 6.0300000e+00 0.0000000e+00 
5.9000000e+00 5.9700000e+00 0.0000000e+00 
5.9000000e+00 5.9900000e+00 0.0000000e+00 
5.9000000e+00 6.0100000e+00 0.0000000e+00 
5.9000000e+00 6.0300000e+00 0.0000000e+00 
5.9266667e+00 5.9700000e+00 0.0000000e+00 
5.9266667e+00 5.9900000e+00 0.0000000e+00 
5.9266667e+00 6.0100000e+00 0.0000000e+00 
5.9266667e+00 6.0300000e+00 0.0000000e+00 
5.9533333e+00 5.9700000e+00 0.0000000e+00 
5.9533333e+00 5.9900000e+00 0.0000000e+00 
5.9533333e+00 6.0100000e+00 0.0000000e+00 
5.9533333e+00 6.0300000e+00 0.0000000e+00 
5.9800000e+00 5.9700000e+00 0.0000000e+00 
5.9800000e+00 5.9900000e+00 0.0000000e+00 
5.9800000e+00 6.0100000e+00 0.0000000e+00 
5.9800000e+00 6.0300000e+00 0.0000000e+00 
6.0066667e+00 5.9700000e+00 0.0000000e+00 
6.0066667e+00 5.9900000e+00 0.0000000e+00 
6.0066667e+00 6.0100000e+00 0.0000000e+00 
6.0066667e+00 6.0300000e+00 0.0000000e+00 
6.0333333e+00 5.9700000e+00 0.0000000e+00 
6.0333333e+00 5.9900000e+00 0.0000000e+00 
6.0333333e+00 6.0100000e+00 0.0000000e+00 
6.0333333e+00 6.0300000e+00 0.0000000e+00 
6.0600000e+00 5.9700000e+00 0.0000000e+00 
6.0600000e+00 5.9900000e+00 0.0000000e+00 
6.0600000e+00 6.0100000e+00 0.0000000e+00 
6.0600000e+00 6.0300000e+00 0.0000000e+00 
6.0866667e+00 5.9700000e+00 0.0000000e+00 
6.0866667e+00 5.9900000e+00 0.0000000e+00 
6.0866667e+00 6.0100000e+00 0.0000000e+00 
6.0866667e+00 6.0300000e+00 0.0000000e+00 
6.1133333e+00 5.9700000e+00 0.0000000e+00 
6.1133333e+00 5.9900000e+00 0.0000000e+00 
6.1133333e+00 6.0100000e+00 0.0000000e+00 
6.1133333e+00 6.0300000e+00 0.0000000e+00 
6.1400000e+00 5.9700000e+00 0.0000000e+00 
6.1400000e+00 5.9900000e+00 0.0000000e+00 
6.1400000e+00 6.0100000e+00 0.0000000e+00 
6.1400000e+00 6.0300000e+00 0.0000000e+00 
6.1666667e+00 5.9700000e+00 0.0000000e+00 
6.1666667e+00 5.9900000e+00 0.0000000e+00 
6.1666667e+00 6.0100000e+00 0.0000000e+00 
6.1666667e+00 6.0300000e+00 0.0000000e+00 
6.1933333e+00 5.9700000e+00 0.0000000e+00 
6.1933333e+00 5.9900000e+00 0.0000000e+00 
6.1933333e+00 6.0100000e+00 0.0000000e+00 
6.1933333e+00 6.0300000e+00 0.0000000e+00 
6.2200000e+00 5.9700000e+00 0.0000000e+00 
6.2200000e+00 5.9900000e+00 0.0000000e+00 
6.2200000e+00 6.0100000e+00 0.0000000e+00 
6.2200000e+00 6.0300000e+00 0.0000000e+00 
6.2466667e+00 5.9700000e+00 0.0000000e+00 
6.2466667e+00 5.9900000e+00 0.0000000e+00 
6.2466667e+00 6.0100000e+00 0.0000000e+00 
6.2466667e+00 6.0300000e+00 0.0000000e+00 
6.2733333e+00 5.9700000e+00 0.0000000e+00 
6.2733333e+00 5.9900000e+00 0.0000000e+00 
6.2733333e+00 6.0100000e+00 0.0000000e+00 
6.2733333e+00 6.0300000e+00 0.0000000e+00 
6.3000000e+00 5.9700000e+00 0.0000000e+00 
6.3000000e+00 5.9900000e+00 0.0000000e+00 
6.3000000e+00 6.0100000e+00 0.0000000e+00 
6.3000000e+00 6.0300000e+00 0.0000000e+00 
6.3266667e+00 5.9700000e+00 0.0000000e+00 
6.3266667e+00 5.9900000e+00 0.0000000e+00 
6.3266667e+00 6.0100000e+00 0.0000000e+00 
6.3266667e+00 6.0300000e+00 0.0000000e+00 
6.3533333e+00 5.9700000e+00 0.0000000e+00 
6.3533333e+00 5.9900000e+00 0.0000000e+00 
6.3533333e+00 6.0100000e+00 0.0000000e+00 
6.3533333e+00 6.0300000e+00 0.0000000e+00 
6.3800000e+00 5.9700000e+00 0.0000000e+00 
6.3800000e+00 5.9900000e+00 0.0000000e+00 
6.3800000e+00 6.0100000e+00 0.0000000e+00 
6.3800000e+00 6.0300000e+00 0.0000000e+00 
6.4066667e+00 5.9700000e+00 0.0000000e+00 
6.4066667e+00 5.9900000e+00 0.0000000e+00 
6.4066667e+00 6.0100000e+00 0.0000000e+00 
6.4066667e+00 6.0300000e+00 0.0000000e+00 
6.4333333e+00 5.9700000e+00 0.0000000e+00 
6.4333333e+00 5.9900000e+00 0.0000000e+00 
6.4333333e+00 6.0100000e+00 0.0000000e+00 
6.4333333e+00 6.0300000e+00 0.0000000e+00 
6.4600000e+00 5.9700000e+00 0.0000000e+00 
6.4600000e+00 5.9900000e+00 0.0000000e+00 
6.4600000e+00 6.0100000e+00 0.0000000e+00 
6.4600000e+00 6.0300000e+00 0.0000000e+00 
6.4866667e+00 5.9700000e+00 0.0000000e+00 
6.4866667e+00 5.9900000e+00 0.0000000e+00 
6.4866667e+00 6.0100000e+00 0.0000000e+00 
6.4866667e+00 6.0300000e+00 0.0000000e+00 
6.5133333e+00 5.9700000e+00 0.0000000e+00 
6.5133333e+00 5.9900000e+00 0.0000000e+00 
6.5133333e+00 6.0100000e+00 0.0000000e+00 
6.5133333e+00 6.0300000e+00 0.0000000e+00 
6.5400000e+00 5.9700000e+00 0.0000000e+00 
6.5400000e+00 5.9900000e+00 0.0000000e+00 
6.5400000e+00 6.0100000e+00 0.0000000e+00 
6.5400000e+00 6.0300000e+00 0.0000000e+00 
6.5666667e+00 5.9700000e+00 0.0000000e+00 
6.5666667e+00 5.9900000e+00 0.0000000e+00 
6.5666667e+00 6.0100000e+00 0.0000000e+00 
6.5666667e+00 6.0300000e+00 0.0000000e+00 
6.5933333e+00 5.9700000e+00 0.0000000e+00 
6.5933333e+00 5.9900000e+00 0.0000000e+00 
6.5933333e+00 6.0100000e+00 0.0000000e+00 
6.5933333e+00 6.0300000e+00 0.0000000e+00 
6.6200000e+00 5.9700000e+00 0.0000000e+00 
6.6200000e+00 5.9900000e+00 0.0000000e+00 
6.6200000e+00 6.0100000e+00 0.0000000e+00 
6.6200000e+00 6.0300000e+00 0.0000000e+00 
6.6466667e+00 5.9700000e+00 0.0000000e+00 
6.6466667e+00 5.9900000e+00 0.0000000e+00 
6.6466667e+00 6.0100000e+00 0.0000000e+00 
6.6466667e+00 6.0300000e+00 0.0000000e+00 
6.6733333e+00 5.9700000e+00 0.0000000e+00 
6.6733333e+00 5.9900000e+00 0.0000000e+00 
6.6733333e+00 6.0100000e+00 0.0000000e+00 
6.6733333e+00 6.0300000e+00 0.0000000e+00 
6.7000000e+00 5.9700000e+00 0.0000000e+00 
6.7000000e+00 5.9900000e+00 0.0000000e+00 
6.7000000e+00 6.0100000e+00 0.0000000e+00 
6.7000000e+00 6.0300000e+00 0.0000000e+00 
6.7266667e+00 5.9700000e+00 0.0000000e+00 
6.7266667e+00 5.9900000e+00 0.0000000e+00 
6.7266667e+00 6.0100000e+00 0.0000000e+00 
6.7266667e+00 6.0300000e+00 0.0000000e+00 
6.7533333e+00 5.9700000e+00 0.0000000e+00 
6.7533333e+00 5.9900000e+00 0.0000000e+00 
6.7533333e+00 6.0100000e+00 0.0000000e+00 
6.7533333e+00 6.0300000e+00 0.0000000e+00 
6.7800000e+00 5.9700000e+00 0.0000000e+00 
6.7800000e+00 5.9900000e+00 0.0000000e+00 
6.7800000e+00 6.0100000e+00 0.0000000e+00 
6.7800000e+00 6.0300000e+00 0.0000000e+00 
6.8066667e+00 5.9700000e+00 0.0000000e+00 
6.8066667e+00 5.9900000e+00 0.0000000e+00 
6.8066667e+00 6.0100000e+00 0.0000000e+00 
6.8066667e+00 6.0300000e+00 0.0000000e+00 
6.8333333e+00 5.9700000e+00 0.0000000e+00 
6.8333333e+00 5.9900000e+00 0.0000000e+00 
6.8333333e+00 6.0100000e+00 0.0000000e+00 
6.8333333e+00 6.0300000e+00 0.0000000e+00 
6.8600000e+00 5.9700000e+00 0.0000000e+00 
6.8600000e+00 5.9900000e+00 0.0000000e+00 
6.8600000e+00 6.0100000e+00 0.0000000e+00 
6.8600000e+00 6.0300000e+00 0.0000000e+00 
6.8866667e+00 5.9700000e+00 0.0000000e+00 
6.8866667e+00 5.9900000e+00 0.0000000e+00 
6.8866667e+00 6.0100000e+00 0.0000000e+00 
6.8866667e+00 6.0300000e+00 0.0000000e+00 
6.9133333e+00 5.9700000e+00 0.0000000e+00 
6.9133333e+00 5.9900000e+00 0.0000000e+00 
6.9133333e+00 6.0100000e+00 0.0000000e+00 
6.9133333e+00 6.0300000e+00 0.0000000e+00 
6.9400000e+00 5.9700000e+00 0.0000000e+00 
6.9400000e+00 5.9900000e+00 0.0000000e+00 
6.9400000e+00 6.0100000e+00 0.0000000e+00 
6.9400000e+00 6.0300000e+00 0.0000000e+00 
6.9666667e+00 5.9700000e+00 0.0000000e+00 
6.9666667e+00 5.9900000e+00 0.0000000e+00 
6.9666667e+00 6.0100000e+00 0.0000000e+00 
6.9666667e+00 6.0300000e+00 0.0000000e+00 
6.9933333e+00 5.9700000e+00 0.0000000e+00 
6.9933333e+00 5.9900000e+00 0.0000000e+00 
6.9933333e+00 6.0100000e+00 0.0000000e+00 
6.9933333e+00 6.0300000e+00 0.0000000e+00 
7.0200000e+00 5.9700000e+00 0.0000000e+00 
7.0200000e+00 5.9900000e+00 0.0000000e+00 
[...]
POINT_DATA 604
FIELD FieldData 2
DISPLACEMENT 3 604  float
0.0000000e+00 0.0000000e+00 0.0000000e+00 
0.0000000e+00 0.0000000e+00 0.0000000e+00 
-6.4148940e-05 -3.5795247e-05 0.0000000e+00 
-2.0829167e-05 -2.2120331e-05 0.0000000e+00 
0.0000000e+00 0.0000000e+00 0.0000000e+00 
2.0687608e-05 -2.2177128e-05 0.0000000e+00 
-1.3231744e-04 -1.1971141e-04 0.0000000e+00 
-4.4634403e-05 -1.0811535e-04 0.0000000e+00 
0.0000000e+00 0.0000000e+00 0.0000000e+00 
6.3973629e-05 -3.5939953e-05 0.0000000e+00 
4.4096880e-05 -1.0833313e-04 0.0000000e+00 
-2.0242171e-04 -2.6628765e-04 0.0000000e+00 
1.3168715e-04 -1.2032556e-04 0.0000000e+00 
-6.8137608e-05 -2.5442159e-04 0.0000000e+00 
6.6669848e-05 -2.5489732e-04 0.0000000e+00 
2.0079495e-04 -2.6767217e-04 0.0000000e+00 
-2.7438969e-04 -4.7504623e-04 0.0000000e+00 
-9.2721840e-05 -4.6332554e-04 0.0000000e+00 
8.9477028e-05 -4.6417718e-04 0.0000000e+00 
2.7092351e-04 -4.7755598e-04 0.0000000e+00 
-3.4838984e-04 -7.4747744e-04 0.0000000e+00 
-1.1834952e-04 -7.3600298e-04 0.0000000e+00 
1.1216480e-04 -7.3735436e-04 0.0000000e+00 
3.4191790e-04 -7.5148191e-04 0.0000000e+00 
-4.2454286e-04 -1.0848165e-03 0.0000000e+00 
-1.4519656e-04 -1.0737282e-03 0.0000000e+00 
1.3457127e-04 -1.0757091e-03 0.0000000e+00 
4.1356037e-04 -1.0907056e-03 0.0000000e+00 
-5.0298550e-04 -1.4882828e-03 0.0000000e+00 
-1.7342463e-04 -1.4777239e-03 0.0000000e+00 
1.5650291e-04 -1.4804705e-03 0.0000000e+00 
4.8563310e-04 -1.4964651e-03 0.0000000e+00 
-5.8386214e-04 -1.9590572e-03 0.0000000e+00 
-2.0320618e-04 -1.9491777e-03 0.0000000e+00 
1.7775999e-04 -1.9528325e-03 0.0000000e+00 
5.5790862e-04 -1.9699607e-03 0.0000000e+00 
-6.6732537e-04 -2.4982839e-03 0.0000000e+00 
-2.3472161e-04 -2.4892399e-03 0.0000000e+00 
1.9813411e-04 -2.4939516e-03 0.0000000e+00 
6.3015106e-04 -2.5123546e-03 0.0000000e+00 
-7.5353538e-04 -3.1070703e-03 0.0000000e+00 
-2.6815939e-04 -3.0990240e-03 0.0000000e+00 
2.1740878e-04 -3.1049473e-03 0.0000000e+00 
7.0211506e-04 -3.1247726e-03 0.0000000e+00 
-8.4265991e-04 -3.7864861e-03 0.0000000e+00 
-3.0371566e-04 -3.7796056e-03 0.0000000e+00 
2.3535915e-04 -3.7869008e-03 0.0000000e+00 
7.7354868e-04 -3.8083011e-03 0.0000000e+00 
-9.3487360e-04 -4.5375636e-03 0.0000000e+00 
-3.4159405e-04 -4.5320224e-03 0.0000000e+00 
2.5175307e-04 -4.5408556e-03 0.0000000e+00 
8.4418918e-04 -4.5639897e-03 0.0000000e+00 
-1.0303583e-03 -5.3612962e-03 0.0000000e+00 
-3.8200526e-04 -5.3572735e-03 0.0000000e+00 
2.6635066e-04 -5.3678159e-03 0.0000000e+00 
9.1376914e-04 -5.3928471e-03 0.0000000e+00 
-1.1293024e-03 -6.2586398e-03 0.0000000e+00 
-4.2516696e-04 -6.2563196e-03 0.0000000e+00 
2.7890531e-04 -6.2687476e-03 0.0000000e+00 
9.8201199e-04 -6.2958453e-03 0.0000000e+00 
-1.2319006e-03 -7.2305109e-03 0.0000000e+00 
-4.7130328e-04 -7.2300824e-03 0.0000000e+00 
2.8916346e-04 -7.2445772e-03 0.0000000e+00 
1.0486358e-03 -7.2739146e-03 0.0000000e+00 
-1.3383535e-03 -8.2777878e-03 0.0000000e+00 
-5.2064450e-04 -8.2794448e-03 0.0000000e+00 
2.9686500e-04 -8.2961923e-03 0.0000000e+00 
1.1133507e-03 -8.3279474e-03 0.0000000e+00 
-1.4488670e-03 -9.4013094e-03 0.0000000e+00 
-5.7342666e-04 -9.4052500e-03 0.0000000e+00 
3.0174401e-04 -9.4244403e-03 0.0000000e+00 
1.1758598e-03 -9.4587959e-03 0.0000000e+00 
-1.5636520e-03 -1.0601874e-02 0.0000000e+00 
-6.2989115e-04 -1.0608301e-02 0.0000000e+00 
3.0352861e-04 -1.0630128e-02 0.0000000e+00 
1.2358622e-03 -1.0667270e-02 0.0000000e+00 
-1.6829242e-03 -1.1880240e-02 0.0000000e+00 
-6.9028435e-04 -1.1889359e-02 0.0000000e+00 
3.0194193e-04 -1.1914021e-02 0.0000000e+00 
1.2930494e-03 -1.1954140e-02 0.0000000e+00 
-1.8069041e-03 -1.3237126e-02 0.0000000e+00 
-7.5485733e-04 -1.3249146e-02 0.0000000e+00 
2.9670245e-04 -1.3276845e-02 0.0000000e+00 
1.3471091e-03 -1.3320133e-02 0.0000000e+00 
-1.9358163e-03 -1.4673210e-02 0.0000000e+00 
-8.2386535e-04 -1.4688344e-02 0.0000000e+00 
2.8752411e-04 -1.4719283e-02 0.0000000e+00 
1.3977264e-03 -1.4765938e-02 0.0000000e+00 
-2.0698886e-03 -1.6189130e-02 0.0000000e+00 
-8.9756742e-04 -1.6207593e-02 0.0000000e+00 
2.7411690e-04 -1.6241979e-02 0.0000000e+00 
1.4445800e-03 -1.6292199e-02 0.0000000e+00 
-2.2093515e-03 -1.7785481e-02 0.0000000e+00 
-9.7622583e-04 -1.7807491e-02 0.0000000e+00 
2.5618703e-04 -1.7845534e-02 0.0000000e+00 
1.4873438e-03 -1.7899521e-02 0.0000000e+00 
-2.3544379e-03 -1.9462817e-02 0.0000000e+00 
-1.0601055e-03 -1.9488596e-02 0.0000000e+00 
2.3343704e-04 -1.9530507e-02 0.0000000e+00 
1.5256903e-03 -1.9588463e-02 0.0000000e+00 
-2.5053819e-03 -2.1221652e-02 0.0000000e+00 
-1.1494738e-03 -2.1251419e-02 0.0000000e+00 
2.0556734e-04 -2.1297412e-02 0.0000000e+00 
1.5592839e-03 -2.1359542e-02 0.0000000e+00 
-2.6624196e-03 -2.3062452e-02 0.0000000e+00 
-1.2445994e-03 -2.3096432e-02 0.0000000e+00 
1.7227592e-04 -2.3146720e-02 0.0000000e+00 
1.5877919e-03 -2.3213229e-02 0.0000000e+00 
-2.8257883e-03 -2.4985644e-02 0.0000000e+00 
-1.3457528e-03 -2.5024059e-02 0.0000000e+00 
1.3325978e-04 -2.5078858e-02 0.0000000e+00 
1.6108776e-03 -2.5149954e-02 0.0000000e+00 
-2.9957255e-03 -2.6991608e-02 0.0000000e+00 
-1.4532046e-03 -2.7034684e-02 0.0000000e+00 
8.8214837e-05 -2.7094208e-02 0.0000000e+00 
1.6282048e-03 -2.7170097e-02 0.0000000e+00 
-3.1724687e-03 -2.9080683e-02 0.0000000e+00 
-1.5672260e-03 -2.9128643e-02 0.0000000e+00 
3.6836745e-05 -2.9193109e-02 0.0000000e+00 
1.6394350e-03 -2.9273998e-02 0.0000000e+00 
-3.3562546e-03 -3.1253162e-02 0.0000000e+00 
-1.6880875e-03 -3.1306231e-02 0.0000000e+00 
-2.1178845e-05 -3.1375854e-02 0.0000000e+00 
1.6442311e-03 -3.1461948e-02 0.0000000e+00 
-3.5473188e-03 -3.3509295e-02 0.0000000e+00 
-1.8160587e-03 -3.3567697e-02 0.0000000e+00 
-8.6135743e-05 -3.3642690e-02 0.0000000e+00 
1.6422550e-03 -3.3734196e-02 0.0000000e+00 
-3.7458944e-03 -3.5849287e-02 0.0000000e+00 
-1.9514075e-03 -3.5913243e-02 0.0000000e+00 
-1.5833612e-04 -3.5993819e-02 0.0000000e+00 
1.6331697e-03 -3.6090941e-02 0.0000000e+00 
-3.9522120e-03 -3.8273296e-02 0.0000000e+00 
-2.0943995e-03 -3.8343027e-02 0.0000000e+00 
-2.3808055e-04 -3.8429397e-02 0.0000000e+00 
1.6166407e-03 -3.8532336e-02 0.0000000e+00 
-4.1664995e-03 -4.0781436e-02 0.0000000e+00 
-2.2452975e-03 -4.0857160e-02 0.0000000e+00 
-3.2566682e-04 -4.0949533e-02 0.0000000e+00 
1.5923344e-03 -4.1058490e-02 0.0000000e+00 
-4.3889809e-03 -4.3373772e-02 0.0000000e+00 
-2.4043608e-03 -4.3455704e-02 0.0000000e+00 
-4.2138884e-04 -4.3554287e-02 0.0000000e+00 
1.5599206e-03 -4.3669458e-02 0.0000000e+00 
-4.6198772e-03 -4.6050326e-02 0.0000000e+00 
-2.5718450e-03 -4.6138679e-02 0.0000000e+00 
-5.2553732e-04 -4.6243674e-02 0.0000000e+00 
1.5190780e-03 -4.6365254e-02 0.0000000e+00 
-4.8594039e-03 -4.8811074e-02 0.0000000e+00 
-2.7480008e-03 -4.8906057e-02 0.0000000e+00 
-6.3839789e-04 -4.9017664e-02 0.0000000e+00 
1.4694833e-03 -4.9145842e-02 0.0000000e+00 
-5.1077705e-03 -5.1655944e-02 0.0000000e+00 
-2.9330740e-03 -5.1757762e-02 0.0000000e+00 
-7.6025205e-04 -5.1876176e-02 0.0000000e+00 
1.4108209e-03 -5.2011139e-02 0.0000000e+00 
-5.3651801e-03 -5.4584819e-02 0.0000000e+00 
-3.1273043e-03 -5.4693671e-02 0.0000000e+00 
-8.9137635e-04 -5.4819083e-02 0.0000000e+00 
1.3427795e-03 -5.4961013e-02 0.0000000e+00 
-5.6318288e-03 -5.7597530e-02 0.0000000e+00 
-3.3309248e-03 -5.7713614e-02 0.0000000e+00 
-1.0320404e-03 -5.7846209e-02 0.0000000e+00 
1.2650476e-03 -5.7995281e-02 0.0000000e+00 
-5.9079054e-03 -6.0693863e-02 0.0000000e+00 
-3.5441612e-03 -6.0817367e-02 0.0000000e+00 
-1.1825070e-03 -6.0957325e-02 0.0000000e+00 
1.1773276e-03 -6.1113710e-02 0.0000000e+00 
-6.1935918e-03 -6.3873552e-02 0.0000000e+00 
-3.7672318e-03 -6.4004660e-02 0.0000000e+00 
-1.3430305e-03 -6.4152156e-02 0.0000000e+00 
1.0793297e-03 -6.4316018e-02 0.0000000e+00 
-6.4890616e-03 -6.7136287e-02 0.0000000e+00 
-4.0003466e-03 -6.7275176e-02 0.0000000e+00 
-1.5138569e-03 -6.7430377e-02 0.0000000e+00 
9.7077166e-04 -6.7601875e-02 0.0000000e+00 
-6.7944804e-03 -7.0481708e-02 0.0000000e+00 
-4.2437067e-03 -7.0628548e-02 0.0000000e+00 
-1.6952232e-03 -7.0791614e-02 0.0000000e+00 
8.5138126e-04 -7.0970900e-02 0.0000000e+00 
-7.1100043e-03 -7.3909409e-02 0.0000000e+00 
-4.4975043e-03 -7.4064364e-02 0.0000000e+00 
-1.8873567e-03 -7.4235449e-02 0.0000000e+00 
7.2089530e-04 -7.4422667e-02 0.0000000e+00 
-7.4357810e-03 -7.7418938e-02 0.0000000e+00 
-4.7619214e-03 -7.7582162e-02 0.0000000e+00 
-2.0904740e-03 -7.7761412e-02 0.0000000e+00 
5.7906214e-04 -7.7956701e-02 0.0000000e+00 
-7.7719490e-03 -8.1009795e-02 0.0000000e+00 
-5.0371306e-03 -8.1181435e-02 0.0000000e+00 
-2.3047818e-03 -8.1368989e-02 0.0000000e+00 
4.2564228e-04 -8.1572475e-02 0.0000000e+00 
-8.1186369e-03 -8.4681439e-02 0.0000000e+00 
-5.3232942e-03 -8.4861634e-02 0.0000000e+00 
-2.5304755e-03 -8.5057621e-02 0.0000000e+00 
2.6040665e-04 -8.5269428e-02 0.0000000e+00 
-8.4759641e-03 -8.8433284e-02 0.0000000e+00 
-5.6205635e-03 -8.8622164e-02 0.0000000e+00 
-2.7677387e-03 -8.8826705e-02 0.0000000e+00 
8.3139668e-05 -8.9046944e-02 0.0000000e+00 
-8.8440389e-03 -9.2264702e-02 0.0000000e+00 
-5.9290789e-03 -9.2462387e-02 0.0000000e+00 
-3.0167435e-03 -9.2675596e-02 0.0000000e+00 
-1.0636293e-04 -9.2904374e-02 0.0000000e+00 
-9.2229598e-03 -9.6175023e-02 0.0000000e+00 
-6.2489693e-03 -9.6381626e-02 0.0000000e+00 
-3.2776493e-03 -9.6603606e-02 0.0000000e+00 
-3.0829080e-04 -9.6841016e-02 0.0000000e+00 
-9.6128145e-03 -1.0016354e-01 0.0000000e+00 
-6.5803522e-03 -1.0037916e-01 0.0000000e+00 
-3.5506030e-03 -1.0061001e-01 0.0000000e+00 
-5.2282199e-04 -1.0085614e-01 0.0000000e+00 
-1.0013681e-02 -1.0422950e-01 0.0000000e+00 
-6.9233333e-03 -1.0445424e-01 0.0000000e+00 
-3.8357390e-03 -1.0469403e-01 0.0000000e+00 
-7.5011547e-04 -1.0494896e-01 0.0000000e+00 
-1.0425625e-02 -1.0837212e-01 0.0000000e+00 
-7.2780062e-03 -1.0860606e-01 0.0000000e+00 
-4.1331779e-03 -1.0885488e-01 0.0000000e+00 
-9.9032323e-04 -1.0911868e-01 0.0000000e+00 
-1.0848701e-02 -1.1259059e-01 0.0000000e+00 
-7.6444523e-03 -1.1283379e-01 0.0000000e+00 
-4.4430282e-03 -1.1309171e-01 0.0000000e+00 
-1.2435761e-03 -1.1336444e-01 0.0000000e+00 
-1.1282950e-02 -1.1688405e-01 0.0000000e+00 
-8.0227405e-03 -1.1713658e-01 0.0000000e+00 
-4.7653855e-03 -1.1740365e-01 0.0000000e+00 
-1.5099969e-03 -1.1768536e-01 0.0000000e+00 
-1.1728404e-02 -1.2125160e-01 0.0000000e+00 
-8.4129267e-03 -1.2151352e-01 0.0000000e+00 
-5.1003314e-03 -1.2178979e-01 0.0000000e+00 
-1.7896972e-03 -1.2208051e-01 0.0000000e+00 
-1.2185081e-02 -1.2569232e-01 0.0000000e+00 
-8.8150548e-03 -1.2596367e-01 0.0000000e+00 
-5.4479342e-03 -1.2624917e-01 0.0000000e+00 
-2.0827687e-03 -1.2654894e-01 0.0000000e+00 
-1.2652989e-02 -1.3020525e-01 0.0000000e+00 
-9.2291557e-03 -1.3048607e-01 0.0000000e+00 
-5.8082476e-03 -1.3078083e-01 0.0000000e+00 
-2.3892860e-03 -1.3108967e-01 0.0000000e+00 
-1.3132127e-02 -1.3478942e-01 0.0000000e+00 
-9.6552482e-03 -1.3507972e-01 0.0000000e+00 
-6.1813119e-03 -1.3538376e-01 0.0000000e+00 
-2.7093117e-03 -1.3570168e-01 0.0000000e+00 
-1.3622480e-02 -1.3944380e-01 0.0000000e+00 
-1.0093339e-02 -1.3974359e-01 0.0000000e+00 
-6.5671517e-03 -1.4005692e-01 0.0000000e+00 
-3.0428912e-03 -1.4038393e-01 0.0000000e+00 
-1.4124026e-02 -1.4416735e-01 0.0000000e+00 
-1.0543421e-02 -1.4447664e-01 0.0000000e+00 
-6.9657802e-03 -1.4479926e-01 0.0000000e+00 
-3.3900529e-03 -1.4513535e-01 0.0000000e+00 
-1.4636734e-02 -1.4895902e-01 0.0000000e+00 
-1.1005481e-02 -1.4927780e-01 0.0000000e+00 
-7.3771968e-03 -1.4960969e-01 0.0000000e+00 
-3.7508131e-03 -1.4995485e-01 0.0000000e+00 
-1.5160560e-02 -1.5381771e-01 0.0000000e+00 
-1.1479487e-02 -1.5414598e-01 0.0000000e+00 
-7.8013878e-03 -1.5448712e-01 0.0000000e+00 
-4.1251726e-03 -1.5484131e-01 0.0000000e+00 
-1.5695451e-02 -1.5874235e-01 0.0000000e+00 
-1.1965403e-02 -1.5908006e-01 0.0000000e+00 
-8.2383272e-03 -1.5943043e-01 0.0000000e+00 
-4.5131199e-03 -1.5979363e-01 0.0000000e+00 
-1.6241346e-02 -1.6373179e-01 0.0000000e+00 
-1.2463177e-02 -1.6407892e-01 0.0000000e+00 
-8.6879765e-03 -1.6443848e-01 0.0000000e+00 
-4.9146262e-03 -1.6481065e-01 0.0000000e+00 
-1.6798173e-02 -1.6878492e-01 0.0000000e+00 
-1.2972747e-02 -1.6914143e-01 0.0000000e+00 
-9.1502853e-03 -1.6951013e-01 0.0000000e+00 
-5.3296545e-03 -1.6989121e-01 0.0000000e+00 
-1.7365848e-02 -1.7390059e-01 0.0000000e+00 
-1.3494043e-02 -1.7426641e-01 0.0000000e+00 
-9.6251915e-03 -1.7464421e-01 0.0000000e+00 
-5.7581497e-03 -1.7503415e-01 0.0000000e+00 
-1.7944281e-02 -1.7907763e-01 0.0000000e+00 
-1.4026980e-02 -1.7945272e-01 0.0000000e+00 
-1.0112622e-02 -1.7983954e-01 0.0000000e+00 
-6.2000491e-03 -1.8023828e-01 0.0000000e+00 
-1.8533370e-02 -1.8431488e-01 0.0000000e+00 
-1.4571467e-02 -1.8469916e-01 0.0000000e+00 
-1.0612493e-02 -1.8509494e-01 0.0000000e+00 
-6.6552788e-03 -1.8550241e-01 0.0000000e+00 
-1.9133005e-02 -1.8961115e-01 0.0000000e+00 
-1.5127401e-02 -1.9000455e-01 0.0000000e+00 
-1.1124709e-02 -1.9040920e-01 0.0000000e+00 
-7.1237508e-03 -1.9082532e-01 0.0000000e+00 
-1.9743068e-02 -1.9496525e-01 0.0000000e+00 
-1.5694670e-02 -1.9536768e-01 0.0000000e+00 
-1.1649163e-02 -1.9578113e-01 0.0000000e+00 
-7.6053640e-03 -1.9620580e-01 0.0000000e+00 
-2.0363434e-02 -2.0037598e-01 0.0000000e+00 
-1.6273153e-02 -2.0078736e-01 0.0000000e+00 
-1.2185740e-02 -2.0120951e-01 0.0000000e+00 
-8.1000078e-03 -2.0164264e-01 0.0000000e+00 
-2.0993970e-02 -2.0584213e-01 0.0000000e+00 
-1.6862720e-02 -2.0626235e-01 0.0000000e+00 
-1.2734314e-02 -2.0669310e-01 0.0000000e+00 
-8.6075592e-03 -2.0713461e-01 0.0000000e+00 
-2.1634534e-02 -2.1136249e-01 0.0000000e+00 
-1.7463233e-02 -2.1179146e-01 0.0000000e+00 
-1.3294749e-02 -2.1223070e-01 0.0000000e+00 
-9.1278866e-03 -2.1268047e-01 0.0000000e+00 
-2.2284979e-02 -2.1693585e-01 0.0000000e+00 
-1.8074546e-02 -2.1737344e-01 0.0000000e+00 
-1.3866901e-02 -2.1782108e-01 0.0000000e+00 
-9.6608470e-03 -2.1827899e-01 0.0000000e+00 
-2.2945152e-02 -2.2256099e-01 0.0000000e+00 
-1.8696507e-02 -2.2300710e-01 0.0000000e+00 
-1.4450617e-02 -2.2346300e-01 0.0000000e+00 
-1.0206287e-02 -2.2392894e-01 0.0000000e+00 
-2.3614895e-02 -2.2823670e-01 0.0000000e+00 
-1.9328954e-02 -2.2869119e-01 0.0000000e+00 
-1.5045736e-02 -2.2915524e-01 0.0000000e+00 
-1.0764046e-02 -2.2962909e-01 0.0000000e+00 
-2.4294042e-02 -2.3396175e-01 0.0000000e+00 
-1.9971723e-02 -2.3442450e-01 0.0000000e+00 
-1.5652091e-02 -2.3489657e-01 0.0000000e+00 
-1.1333953e-02 -2.3537820e-01 0.0000000e+00 
-2.4982425e-02 -2.3973495e-01 0.0000000e+00 
-2.0624641e-02 -2.4020583e-01 0.0000000e+00 
-1.6269506e-02 -2.4068578e-01 0.0000000e+00 
-1.1915833e-02 -2.4117506e-01 0.0000000e+00 
-2.5679868e-02 -2.4555507e-01 0.0000000e+00 
-2.1287529e-02 -2.4603394e-01 0.0000000e+00 
-1.6897800e-02 -2.4652164e-01 0.0000000e+00 
-1.2509499e-02 -2.4701843e-01 0.0000000e+00 
-2.6386194e-02 -2.5142092e-01 0.0000000e+00 
-2.1960205e-02 -2.5190764e-01 0.0000000e+00 
-1.7536786e-02 -2.5240295e-01 0.0000000e+00 
-1.3114760e-02 -2.5290711e-01 0.0000000e+00 
-2.7101219e-02 -2.5733130e-01 0.0000000e+00 
-2.2642482e-02 -2.5782572e-01 0.0000000e+00 
-1.8186272e-02 -2.5832849e-01 0.0000000e+00 
-1.3731420e-02 -2.5883989e-01 0.0000000e+00 
-2.7824757e-02 -2.6328502e-01 0.0000000e+00 
-2.3334165e-02 -2.6378698e-01 0.0000000e+00 
-1.8846059e-02 -2.6429708e-01 0.0000000e+00 
-1.4359275e-02 -2.6481555e-01 0.0000000e+00 
-2.8556615e-02 -2.6928089e-01 0.0000000e+00 
-2.4035059e-02 -2.6979025e-01 0.0000000e+00 
-1.9515944e-02 -2.7030751e-01 0.0000000e+00 
-1.4998116e-02 -2.7083292e-01 0.0000000e+00 
-2.9296600e-02 -2.7531773e-01 0.0000000e+00 
-2.4744963e-02 -2.7583433e-01 0.0000000e+00 
-2.0195722e-02 -2.7635861e-01 0.0000000e+00 
-1.5647731e-02 -2.7689080e-01 0.0000000e+00 
-3.0044515e-02 -2.8139438e-01 0.0000000e+00 
-2.5463672e-02 -2.8191807e-01 0.0000000e+00 
-2.0885180e-02 -2.8244919e-01 0.0000000e+00 
-1.6307901e-02 -2.8298801e-01 0.0000000e+00 
-3.0800159e-02 -2.8750967e-01 0.0000000e+00 
-2.6190980e-02 -2.8804029e-01 0.0000000e+00 
-2.1584105e-02 -2.8857811e-01 0.0000000e+00 
-1.6978406e-02 -2.8912340e-01 0.0000000e+00 
-3.1563330e-02 -2.9366247e-01 0.0000000e+00 
-2.6926677e-02 -2.9419984e-01 0.0000000e+00 
-2.2292279e-02 -2.9474420e-01 0.0000000e+00 
-1.7659019e-02 -2.9529580e-01 0.0000000e+00 
-3.2333825e-02 -2.9985162e-01 0.0000000e+00 
-2.7670549e-02 -3.0039558e-01 0.0000000e+00 
-2.3009480e-02 -3.0094631e-01 0.0000000e+00 
-1.8349512e-02 -3.0150406e-01 0.0000000e+00 
-3.3111439e-02 -3.0607600e-01 0.0000000e+00 
-2.8422384e-02 -3.0662639e-01 0.0000000e+00 
-2.3735486e-02 -3.0718333e-01 0.0000000e+00 
-1.9049652e-02 -3.0774707e-01 0.0000000e+00 
-3.3895964e-02 -3.1233449e-01 0.0000000e+00 
-2.9181964e-02 -3.1289114e-01 0.0000000e+00 
-2.4470072e-02 -3.1345412e-01 0.0000000e+00 
-1.9759206e-02 -3.1402368e-01 0.0000000e+00 
-3.4687194e-02 -3.1862599e-01 0.0000000e+00 
-2.9949074e-02 -3.1918873e-01 0.0000000e+00 
-2.5213010e-02 -3.1975759e-01 0.0000000e+00 
-2.0477935e-02 -3.2033280e-01 0.0000000e+00 
-3.5484922e-02 -3.2494941e-01 0.0000000e+00 
-3.0723494e-02 -3.2551807e-01 0.0000000e+00 
-2.5964073e-02 -3.2609263e-01 0.0000000e+00 
-2.1205603e-02 -3.2667334e-01 0.0000000e+00 
-3.6288939e-02 -3.3130366e-01 0.0000000e+00 
-3.1505008e-02 -3.3187807e-01 0.0000000e+00 
-2.6723031e-02 -3.3245817e-01 0.0000000e+00 
-2.1941968e-02 -3.3304421e-01 0.0000000e+00 
-3.7099039e-02 -3.3768770e-01 0.0000000e+00 
-3.2293396e-02 -3.3826768e-01 0.0000000e+00 
-2.7489654e-02 -3.3885315e-01 0.0000000e+00 
-2.2686790e-02 -3.3944436e-01 0.0000000e+00 
-3.7915016e-02 -3.4410046e-01 0.0000000e+00 
-3.3088439e-02 -3.4468584e-01 0.0000000e+00 
-2.8263714e-02 -3.4527652e-01 0.0000000e+00 
-2.3439829e-02 -3.4587273e-01 0.0000000e+00 
-3.8736660e-02 -3.5054091e-01 0.0000000e+00 
-3.3889920e-02 -3.5113153e-01 0.0000000e+00 
-2.9044980e-02 -3.5172725e-01 0.0000000e+00 
-2.4200844e-02 -3.5232829e-01 0.0000000e+00 
-3.9563768e-02 -3.5700804e-01 0.0000000e+00 
-3.4697621e-02 -3.5760373e-01 0.0000000e+00 
-2.9833222e-02 -3.5820431e-01 0.0000000e+00 
-2.4969592e-02 -3.5881002e-01 0.0000000e+00 
-4.0396132e-02 -3.6350085e-01 0.0000000e+00 
-3.5511323e-02 -3.6410143e-01 0.0000000e+00 
-3.0628211e-02 -3.6470671e-01 0.0000000e+00 
-2.5745832e-02 -3.6531693e-01 0.0000000e+00 
-4.1233549e-02 -3.7001834e-01 0.0000000e+00 
-3.6330811e-02 -3.7062364e-01 0.0000000e+00 
-3.1429719e-02 -3.7123346e-01 0.0000000e+00 
-2.6529324e-02 -3.7184802e-01 0.0000000e+00 
-4.2075817e-02 -3.7655954e-01 0.0000000e+00 
-3.7155871e-02 -3.7716941e-01 0.0000000e+00 
-3.2237518e-02 -3.7778359e-01 0.0000000e+00 
-2.7319828e-02 -3.7840234e-01 0.0000000e+00 
-4.2922736e-02 -3.8312351e-01 0.0000000e+00 
-3.7986288e-02 -3.8373776e-01 0.0000000e+00 
-3.3051383e-02 -3.8435616e-01 0.0000000e+00 
-2.8117106e-02 -3.8497892e-01 0.0000000e+00 
-4.3774108e-02 -3.8970930e-01 0.0000000e+00 
-3.8821853e-02 -3.9032778e-01 0.0000000e+00 
-3.3871090e-02 -3.9095022e-01 0.0000000e+00 
-2.8920921e-02 -3.9157684e-01 0.0000000e+00 
-4.4629737e-02 -3.9631600e-01 0.0000000e+00 
-3.9662355e-02 -3.9693854e-01 0.0000000e+00 
-3.4696415e-02 -3.9756486e-01 0.0000000e+00 
-2.9731036e-02 -3.9819519e-01 0.0000000e+00 
-4.5489430e-02 -4.0294270e-01 0.0000000e+00 
-4.0507589e-02 -4.0356913e-01 0.0000000e+00 
-3.5527139e-02 -4.0419918e-01 0.0000000e+00 
-3.0547218e-02 -4.0483306e-01 0.0000000e+00 
-4.6352997e-02 -4.0958852e-01 0.0000000e+00 
-4.1357351e-02 -4.1021868e-01 0.0000000e+00 
-3.6363044e-02 -4.1085229e-01 0.0000000e+00 
-3.1369235e-02 -4.1148957e-01 0.0000000e+00 
-4.7220251e-02 -4.1625258e-01 0.0000000e+00 
-4.2211438e-02 -4.1688632e-01 0.0000000e+00 
-3.7203915e-02 -4.1752335e-01 0.0000000e+00 
-3.2196859e-02 -4.1816387e-01 0.0000000e+00 
-4.8091009e-02 -4.2293405e-01 0.0000000e+00 
-4.3069654e-02 -4.2357122e-01 0.0000000e+00 
-3.8049540e-02 -4.2421150e-01 0.0000000e+00 
-3.3029861e-02 -4.2485512e-01 0.0000000e+00 
-4.8965092e-02 -4.2963210e-01 0.0000000e+00 
-4.3931805e-02 -4.3027253e-01 0.0000000e+00 
-3.8899709e-02 -4.3091593e-01 0.0000000e+00 
-3.3868019e-02 -4.3156250e-01 0.0000000e+00 
-4.9842324e-02 -4.3634592e-01 0.0000000e+00 