# vtk DataFile Version 4.0
vtk output
ASCII
DATASET UNSTRUCTURED_GRID
POINTS 604 float
5.5000000e+00 5.9700000e+00 0.0000000e+00 
5.5000000e+00 5.9900000e+00 0.0000000e+00 
5.5266667e+00 5.9700000e+00 0.0000000e+00 
5.5266667e+00 5.9900000e+00 0.0000000e+00 
5.5000000e+00 6.0100000e+00 0.0000000e+00 
5.5266667e+00 6.0100000e+00 0.0000000e+00 
5.5533333e+00 5.9700000e+00 0.0000000e+00 
5.5533333e+00 5.9900000e+00 0.0000000e+00 
5.5000000e+00 6.0300000e+00 0.0000000e+00 
5.5266667e+00 6.0300000e+00 0.0000000e+00 
5.5533333e+00 6.0100000e+00 0.0000000e+00 
5.5800000e+00 5.9700000e+00 0.0000000e+00 
5.5533333e+00 6.0300000e+00 0.0000000e+00 
5.5800000e+00 5.9900000e+00 0.0000000e+00 
5.5800000e+00 6.0100000e+00 0.0000000e+00 
5.5800000e+00 6.0300000e+00 0.0000000e+00 
5.6066667e+00 5.9700000e+00 0.0000000e+00 
5.6066667e+00 5.9900000e+00 0.0000000e+00 
5.6066667e+00 6.0100000e+00 0.0000000e+00 
5.6066667e+00 6.0300000e+00 0.0000000e+00 
5.6333333e+00 5.9700000e+00 0.0000000e+00 
5.6333333e+00 5.9900000e+00 0.0000000e+00 
5.6333333e+00 6.0100000e+00 0.0000000e+00 
5.6333333e+00 6.0300000e+00 0.0000000e+00 
5.6600000e+00 5.9700000e+00 0.0000000e+00 
5.6600000e+00 5.9900000e+00 0.0000000e+00 
5.6600000e+00 6.0100000e+00 0.0000000e+00 
5.6600000e+00 6.0300000e+00 0.0000000e+00 
5.6866667e+00 5.9700000e+00 0.0000000e+00 
5.6866667e+00 5.9900000e+00 0.0000000e+00 
5.6866667e+00 6.0100000e+00 0.0000000e+00 
5.6866667e+00 6.0300000e+00 0.0000000e+00 
5.7133333e+00 5.9700000e+00 0.0000000e+00 
5.7133333e+00 5.9900000e+00 0.0000000e+00 
5.7133333e+00 6.0100000e+00 0.0000000e+00 
5.7133333e+00 6.0300000e+00 0.0000000e+00 
5.7400000e+00 5.9700000e+00 0.0000000e+00 
5.7400000e+00 5.9900000e+00 0.0000000e+00 
5.7400000e+00 6.0100000e+00 0.0000000e+00 
5.7400000e+00 6.0300000e+00 0.0000000e+00 
5.7666667e+00 5.9700000e+00 0.0000000e+00 
5.7666667e+00 5.9900000e+00 0.0000000e+00 
5.7666667e+00 6.0100000e+00 0.0000000e+00 
5.7666667e+00 6.0300000e+00 0.0000000e+00 
5.7933333e+00 5.9700000e+00 0.0000000e+00 
5.7933333e+00 5.9900000e+00 0.0000000e+00 
5.7933333e+00 6.0100000e+00 0.0000000e+00 
5.7933333e+00 6.0300000e+00 0.0000000e+00 
5.8200000e+00 5.9700000e+00 0.0000000e+00 
5.8200000e+00 5.9900000e+00 0.0000000e+00 
5.8200000e+00 6.0100000e+00 0.0000000e+00 
5.8200000e+00 6.0300000e+00 0.0000000e+00 
5.8466667e+00 5.9700000e+00 0.0000000e+00 
5.8466667e+00 5.9900000e+00 0.0000000e+00 
5.8466667e+00 6.0100000e+00 0.0000000e+00 
5.8466667e+00 6.0300000e+00 0.0000000e+00 
5.8733333e+00 5.9700000e+00 0.0000000e+00 
5.8733333e+00 5.9900000e+00 0.0000000e+00 
5.8733333e+00 6.0100000e+00 0.0000000e+00 
5.8733333e+00 6.0300000e+00 0.0000000e+00 
5.9000000e+00 5.9700000e+00 0.0000000e+00 
5.9000000e+00 5.9900000e+00 0.0000000e+00 
5.9000000e+00 6.0100000e+00 0.0000000e+00 
5.9000000e+00 6.0300000e+00 0.0000000e+00 
5.9266667e+00 5.9700000e+00 0.0000000e+00 
5.9266667e+00 5.9900000e+00 0.0000000e+00 
5.9266667e+00 6.0100000e+00 0.0000000e+00 
5.9266667e+00 6.0300000e+00 0.0000000e+00 
5.9533333e+00 5.9700000e+00 0.0000000e+00 
5.9533333e+00 5.9900000e+00 0.0000000e+00 
5.9533333e+00 6.0100000e+00 0.0000000e+00 
5.9533333e+00 6.0300000e+00 0.0000000e+00 
5.9800000e+00 5.9700000e+00 0.0000000e+00 
5.9800000e+00 5.9900000e+00 0.0000000e+00 
5.9800000e+00 6.0100000e+00 0.0000000e+00 
5.9800000e+00 6.0300000e+00 0.0000000e+00 
6.0066667e+00 5.9700000e+00 0.0000000e+00 
6.0066667e+00 5.9900000e+00 0.0000000e+00 
6.0066667e+00 6.0100000e+00 0.0000000e+00 
6.0066667e+00 6.0300000e+00 0.0000000e+00 
6.0333333e+00 5.9700000e+00 0.0000000e+00 
6.0333333e+00 5.9900000e+00 0.0000000e+00 
6.0333333e+00 6.0100000e+00 0.0000000e+00 
6.0333333e+00 6.0300000e+00 0.0000000e+00 
6.0600000e+00 5.9700000e+00 0.0000000e+00 
6.0600000e+00 5.9900000e+00 0.0000000e+00 
6.0600000e+00 6.0100000e+00 0.0000000e+00 
6.0600000e+00 6.0300000e+00 0.0000000e+00 
6.0866667e+00 5.9700000e+00 0.0000000e+00 
6.0866667e+00 5.9900000e+00 0.0000000e+00 
6.0866667e+00 6.0100000e+00 0.0000000e+00 
6.0866667e+00 6.0300000e+00 0.0000000e+00 
6.1133333e+00 5.9700000e+00 0.0000000e+00 
6.1133333e+00 5.9900000e+00 0.0000000e+00 
6.1133333e+00 6.0100000e+00 0.0000000e+00 
6.1133333e+00 6.0300000e+00 0.0000000e+00 
6.1400000e+00 5.9700000e+00 0.0000000e+00 
6.1400000e+00 5.9900000e+00 0.0000000e+00 
6.1400000e+00 6.0100000e+00 0.0000000e+00 
6.1400000e+00 6.0300000e+00 0.0000000e+00 
6.1666667e+00 5.9700000e+00 0.0000000e+00 
6.1666667e+00 5.9900000e+00 0.0000000e+00 
6.1666667e+00 6.0100000e+00 0.0000000e+00 
6.1666667e+00 6.0300000e+00 0.0000000e+00 
6.1933333e+00 5.9700000e+00 0.0000000e+00 
6.1933333e+00 5.9900000e+00 0.0000000e+00 
6.1933333e+00 6.0100000e+00 0.0000000e+00 
6.1933333e+00 6.0300000e+00 0.0000000e+00 
6.2200000e+00 5.9700000e+00 0.0000000e+00 
6.2200000e+00 5.9900000e+00 0.0000000e+00 
6.2200000e+00 6.0100000e+00 0.0000000e+00 
6.2200000e+00 6.0300000e+00 0.0000000e+00 
6.2466667e+00 5.9700000e+00 0.0000000e+00 
6.2466667e+00 5.9900000e+00 0.0000000e+00 
6.2466667e+00 6.0100000e+00 0.0000000e+00 
6.2466667e+00 6.0300000e+00 0.0000000e+00 
6.2733333e+00 5.9700000e+00 0.0000000e+00 
6.2733333e+00 5.9900000e+00 0.0000000e+00 
6.2733333e+00 6.0100000e+00 0.0000000e+00 
6.2733333e+00 6.0300000e+00 0.0000000e+00 
6.3000000e+00 5.9700000e+00 0.0000000e+00 
6.3000000e+00 5.9900000e+00 0.0000000e+00 
6.3000000e+00 6.0100000e+00 0.0000000e+00 
6.3000000e+00 6.0300000e+00 0.0000000e+00 
6.3266667e+00 5.9700000e+00 0.0000000e+00 
6.3266667e+00 5.9900000e+00 0.0000000e+00 
6.3266667e+00 6.0100000e+00 0.0000000e+00 
6.3266667e+00 6.0300000e+00 0.0000000e+00 
6.3533333e+00 5.9700000e+00 0.0000000e+00 
6.3533333e+00 5.9900000e+00 0.0000000e+00 
6.3533333e+00 6.0100000e+00 0.0000000e+00 
6.3533333e+00 6.0300000e+00 0.0000000e+00 
6.3800000e+00 5.9700000e+00 0.0000000e+00 
6.3800000e+00 5.9900000e+00 0.0000000e+00 
6.3800000e+00 6.0100000e+00 0.0000000e+00 
6.3800000e+00 6.0300000e+00 0.0000000e+00 
6.4066667e+00 5.9700000e+00 0.0000000e+00 
6.4066667e+00 5.9900000e+00 0.0000000e+00 
6.4066667e+00 6.0100000e+00 0.0000000e+00 
6.4066667e+00 6.0300000e+00 0.0000000e+00 
6.4333333e+00 5.9700000e+00 0.0000000e+00 
6.4333333e+00 5.9900000e+00 0.0000000e+00 
6.4333333e+00 6.0100000e+00 0.0000000e+00 
6.4333333e+00 6.0300000e+00 0.0000000e+00 
6.4600000e+00 5.9700000e+00 0.0000000e+00 
6.4600000e+00 5.9900000e+00 0.0000000e+00 
6.4600000e+00 6.0100000e+00 0.0000000e+00 
6.4600000e+00 6.0300000e+00 0.0000000e+00 
6.4866667e+00 5.9700000e+00 0.0000000e+00 
6.4866667e+00 5.9900000e+00 0.0000000e+00 
6.4866667e+00 6.0100000e+00 0.0000000e+00 
6.4866667e+00 6.0300000e+00 0.0000000e+00 
6.5133333e+00 5.9700000e+00 0.0000000e+00 
6.5133333e+00 5.9900000e+00 0.0000000e+00 
6.5133333e+00 6.0100000e+00 0.0000000e+00 
6.5133333e+00 6.0300000e+00 0.0000000e+00 
6.5400000e+00 5.9700000e+00 0.0000000e+00 
6.5400000e+00 5.9900000e+00 0.0000000e+00 
6.5400000e+00 6.0100000e+00 0.0000000e+00 
6.5400000e+00 6.0300000e+00 0.0000000e+00 
6.5666667e+00 5.9700000e+00 0.0000000e+00 
6.5666667e+00 5.9900000e+00 0.0000000e+00 
6.5666667e+00 6.0100000e+00 0.0000000e+00 
6.5666667e+00 6.0300000e+00 0.0000000e+00 
6.5933333e+00 5.9700000e+00 0.0000000e+00 
6.5933333e+00 5.9900000e+00 0.0000000e+00 
6.5933333e+00 6.0100000e+00 0.0000000e+00 
6.5933333e+00 6.0300000e+00 0.0000000e+00 
6.6200000e+00 5.9700000e+00 0.0000000e+00 
6.6200000e+00 5.9900000e+00 0.0000000e+00 
6.6200000e+00 6.0100000e+00 0.0000000e+00 
6.6200000e+00 6.0300000e+00 0.0000000e+00 
6.6466667e+00 5.9700000e+00 0.0000000e+00 
6.6466667e+00 5.9900000e+00 0.0000000e+00 
6.6466667e+00 6.0100000e+00 0.0000000e+00 
6.6466667e+00 6.0300000e+00 0.0000000e+00 
6.6733333e+00 5.9700000e+00 0.0000000e+00 
6.6733333e+00 5.9900000e+00 0.0000000e+00 
6.6733333e+00 6.0100000e+00 0.0000000e+00 
6.6733333e+00 6.0300000e+00 0.0000000e+00 
6.7000000e+00 5.9700000e+00 0.0000000e+00 
6.7000000e+00 5.9900000e+00 0.0000000e+00 
6.7000000e+00 6.0100000e+00 0.0000000e+00 
6.7000000e+00 6.0300000e+00 0.0000000e+00 
6.7266667e+00 5.9700000e+00 0.0000000e+00 
6.7266667e+00 5.9900000e+00 0.0000000e+00 
6.7266667e+00 6.0100000e+00 0.0000000e+00 
6.7266667e+00 6.0300000e+00 0.0000000e+00 
6.7533333e+00 5.9700000e+00 0.0000000e+00 
6.7533333e+00 5.9900000e+00 0.0000000e+00 
6.7533333e+00 6.0100000e+00 0.0000000e+00 
6.7533333e+00 6.0300000e+00 0.0000000e+00 
6.7800000e+00 5.9700000e+00 0.0000000e+00 
6.7800000e+00 5.9900000e+00 0.0000000e+00 
6.7800000e+00 6.0100000e+00 0.0000000e+00 
6.7800000e+00 6.0300000e+00 0.0000000e+00 
6.8066667e+00 5.9700000e+00 0.0000000e+00 
6.8066667e+00 5.9900000e+00 0.0000000e+00 
6.8066667e+00 6.0100000e+00 0.0000000e+00 
6.8066667e+00 6.0300000e+00 0.0000000e+00 
6.8333333e+00 5.9700000e+00 0.0000000e+00 
6.8333333e+00 5.9900000e+00 0.0000000e+00 
6.8333333e+00 6.0100000e+00 0.0000000e+00 
6.8333333e+00 6.0300000e+00 0.0000000e+00 
6.8600000e+00 5.9700000e+00 0.0000000e+00 
6.8600000e+00 5.9900000e+00 0.0000000e+00 
6.8600000e+00 6.0100000e+00 0.0000000e+00 
6.8600000e+00 6.0300000e+00 0.0000000e+00 
6.8866667e+00 5.9700000e+00 0.0000000e+00 
6.8866667e+00 5.9900000e+00 0.0000000e+00 
6.8866667e+00 6.0100000e+00 0.0000000e+00 
6.8866667e+00 6.0300000e+00 0.0000000e+00 
6.9133333e+00 5.9700000e+00 0.0000000e+00 
6.9133333e+00 5.9900000e+00 0.0000000e+00 
6.9133333e+00 6.0100000e+00 0.0000000e+00 
6.9133333e+00 6.0300000e+00 0.0000000e+00 
6.9400000e+00 5.9700000e+00 0.0000000e+00 
6.9400000e+00 5.9900000e+00 0.0000000e+00 
6.9400000e+00 6.0100000e+00 0.0000000e+00 
6.9400000e+00 6.0300000e+00 0.0000000e+00 
6.9666667e+00 5.9700000e+00 0.0000000e+00 
6.9666667e+00 5.9900000e+00 0.0000000e+00 
6.9666667e+00 6.0100000e+00 0.0000000e+00 
6.9666667e+00 6.0300000e+00 0.0000000e+00 
6.9933333e+00 5.9700000e+00 0.0000000e+00 
6.9933333e+00 5.9900000e+00 0.0000000e+00 
6.9933333e+00 6.0100000e+00 0.0000000e+00 
6.9933333e+00 6.0300000e+00 0.0000000e+00 
7.0200000e+00 5.9700000e+00 0.0000000e+00 
7.0200000e+00 5.9900000e+00 0.0000000e+00 
[...]
POINT_DATA 604
FIELD FieldData 2
DISPLACEMENT 3 604  float
0.0000000e+00 0.0000000e+00 0.0000000e+00 
0.0000000e+00 0.0000000e+00 0.0000000e+00 
-5.2615506e-05 -2.9250968e-05 0.0000000e+00 
-1.7048525e-05 -1.8011466e-05 0.0000000e+00 
0.0000000e+00 0.0000000e+00 0.0000000e+00 
1.7109739e-05 -1.8065288e-05 0.0000000e+00 
-1.0866882e-04 -9.8169338e-05 0.0000000e+00 
-3.6544591e-05 -8.8590934e-05 0.0000000e+00 
0.0000000e+00 0.0000000e+00 0.0000000e+00 
5.2665234e-05 -2.9399860e-05 0.0000000e+00 
3.6509858e-05 -8.8756954e-05 0.0000000e+00 
-1.6641014e-04 -2.1879825e-04 0.0000000e+00 
1.0857312e-04 -9.8637530e-05 0.0000000e+00 
-5.5802498e-05 -2.0893762e-04 0.0000000e+00 
5.5306577e-05 -2.0927798e-04 0.0000000e+00 
1.6580599e-04 -2.1978978e-04 0.0000000e+00 
-2.2576013e-04 -3.9086873e-04 0.0000000e+00 
-7.5935391e-05 -3.8105149e-04 0.0000000e+00 
7.4400340e-05 -3.8164849e-04 0.0000000e+00 
2.2407416e-04 -3.9262793e-04 0.0000000e+00 
-2.8683424e-04 -6.1572635e-04 0.0000000e+00 
-9.6890295e-05 -6.0601991e-04 0.0000000e+00 
9.3521149e-05 -6.0695927e-04 0.0000000e+00 
2.8326865e-04 -6.1850925e-04 0.0000000e+00 
-3.4970785e-04 -8.9450564e-04 0.0000000e+00 
-1.1878933e-04 -8.8500883e-04 0.0000000e+00 
1.1255697e-04 -8.8638069e-04 0.0000000e+00 
3.4323030e-04 -8.9858304e-04 0.0000000e+00 
-4.1446899e-04 -1.2283259e-03 0.0000000e+00 
-1.4174255e-04 -1.2191399e-03 0.0000000e+00 
1.3137032e-04 -1.2210394e-03 0.0000000e+00 
4.0380024e-04 -1.2339832e-03 0.0000000e+00 
-4.8121200e-04 -1.6182728e-03 0.0000000e+00 
-1.6586831e-04 -1.6095041e-03 0.0000000e+00 
1.4981915e-04 -1.6120311e-03 0.0000000e+00 
4.6481246e-04 -1.6258100e-03 0.0000000e+00 
-5.5003736e-04 -2.0654008e-03 0.0000000e+00 
-1.9129124e-04 -2.0571603e-03 0.0000000e+00 
1.6775480e-04 -2.0604196e-03 0.0000000e+00 
5.2609449e-04 -2.0751321e-03 0.0000000e+00 
-6.2105191e-04 -2.5707320e-03 0.0000000e+00 
-2.1814220e-04 -2.5631355e-03 0.0000000e+00 
1.8502241e-04 -2.5672363e-03 0.0000000e+00 
5.8746700e-04 -2.5829855e-03 0.0000000e+00 
-6.9436844e-04 -3.1352569e-03 0.0000000e+00 
-2.4655814e-04 -3.1284245e-03 0.0000000e+00 
2.0146078e-04 -3.1334807e-03 0.0000000e+00 
6.4874553e-04 -3.1503740e-03 0.0000000e+00 
-7.7010554e-04 -3.7599337e-03 0.0000000e+00 
-2.7668195e-04 -3.7539901e-03 0.0000000e+00 
2.1690302e-04 -3.7601200e-03 0.0000000e+00 
7.0973779e-04 -3.7782694e-03 0.0000000e+00 
-8.4838775e-04 -4.4456890e-03 0.0000000e+00 
-3.0866224e-04 -4.4407628e-03 0.0000000e+00 
2.3117628e-04 -4.4480887e-03 0.0000000e+00 
7.7024778e-04 -4.4676103e-03 0.0000000e+00 
-9.2934529e-04 -5.1934166e-03 0.0000000e+00 
-3.4265325e-04 -5.1896411e-03 0.0000000e+00 
2.4410245e-04 -5.1982894e-03 0.0000000e+00 
8.3007283e-04 -5.2193037e-03 0.0000000e+00 
-1.0131138e-03 -6.0039801e-03 0.0000000e+00 
-3.7881460e-04 -6.0014916e-03 0.0000000e+00 
2.5549793e-04 -6.0115929e-03 0.0000000e+00 
8.8900613e-04 -6.0342239e-03 0.0000000e+00 
-1.0998342e-03 -6.8782101e-03 0.0000000e+00 
-4.1731115e-04 -6.8771493e-03 0.0000000e+00 
2.6517406e-04 -6.8888377e-03 0.0000000e+00 
9.4683487e-04 -6.9132136e-03 0.0000000e+00 
-1.1896524e-03 -7.8169057e-03 0.0000000e+00 
-4.5831258e-04 -7.8174170e-03 0.0000000e+00 
2.7293739e-04 -7.8308305e-03 0.0000000e+00 
1.0033415e-03 -7.8570830e-03 0.0000000e+00 
-1.2827194e-03 -8.8208360e-03 0.0000000e+00 
-5.0199347e-04 -8.8230666e-03 0.0000000e+00 
2.7858968e-04 -8.8383465e-03 0.0000000e+00 
1.0583049e-03 -8.8666107e-03 0.0000000e+00 
-1.3791906e-03 -9.8907374e-03 0.0000000e+00 
-5.4853288e-04 -9.8948383e-03 0.0000000e+00 
2.8192848e-04 -9.9121293e-03 0.0000000e+00 
1.1114986e-03 -9.9425439e-03 0.0000000e+00 
-1.4792263e-03 -1.1027317e-02 0.0000000e+00 
-5.9811423e-04 -1.1033442e-02 0.0000000e+00 
2.8274728e-04 -1.1052891e-02 0.0000000e+00 
1.1626927e-03 -1.1085598e-02 0.0000000e+00 
-1.5829912e-03 -1.2231249e-02 0.0000000e+00 
-6.5092507e-04 -1.2239555e-02 0.0000000e+00 
2.8083557e-04 -1.2261314e-02 0.0000000e+00 
1.2116550e-03 -1.2296457e-02 0.0000000e+00 
-1.6906539e-03 -1.3503181e-02 0.0000000e+00 
-7.0715673e-04 -1.3513827e-02 0.0000000e+00 
2.7597914e-04 -1.3538049e-02 0.0000000e+00 
1.2581482e-03 -1.3575776e-02 0.0000000e+00 
-1.8023858e-03 -1.4843728e-02 0.0000000e+00 
-7.6700413e-04 -1.4856876e-02 0.0000000e+00 
2.6796018e-04 -1.4883716e-02 0.0000000e+00 
1.3019312e-03 -1.4924178e-02 0.0000000e+00 
-1.9183622e-03 -1.6253475e-02 0.0000000e+00 
-8.3066534e-04 -1.6269290e-02 0.0000000e+00 
2.5655719e-04 -1.6298907e-02 0.0000000e+00 
1.3427606e-03 -1.6342255e-02 0.0000000e+00 
-2.0387606e-03 -1.7732976e-02 0.0000000e+00 
-8.9834153e-04 -1.7751624e-02 0.0000000e+00 
2.4154614e-04 -1.7784178e-02 0.0000000e+00 
1.3803869e-03 -1.7830567e-02 0.0000000e+00 
-2.1637621e-03 -1.9282756e-02 0.0000000e+00 
-9.7023653e-04 -1.9304405e-02 0.0000000e+00 
2.2269999e-04 -1.9340059e-02 0.0000000e+00 
1.4145616e-03 -1.9389645e-02 0.0000000e+00 
-2.2935502e-03 -2.0903307e-02 0.0000000e+00 
-1.0465568e-03 -2.0928128e-02 0.0000000e+00 
1.9978975e-04 -2.0967045e-02 0.0000000e+00 
1.4450325e-03 -2.1019986e-02 0.0000000e+00 
-2.4283111e-03 -2.2595095e-02 0.0000000e+00 
-1.1275108e-03 -2.2623258e-02 0.0000000e+00 
1.7258420e-04 -2.2665604e-02 0.0000000e+00 
1.4715465e-03 -2.2722060e-02 0.0000000e+00 
-2.5682325e-03 -2.4358552e-02 0.0000000e+00 
-1.2133092e-03 -2.4390232e-02 0.0000000e+00 
1.4085047e-04 -2.4436173e-02 0.0000000e+00 
1.4938478e-03 -2.4496304e-02 0.0000000e+00 
-2.7135045e-03 -2.6194084e-02 0.0000000e+00 
-1.3041640e-03 -2.6229453e-02 0.0000000e+00 
1.0435398e-04 -2.6279158e-02 0.0000000e+00 
1.5116800e-03 -2.6343128e-02 0.0000000e+00 
-2.8643181e-03 -2.8102067e-02 0.0000000e+00 
-1.4002889e-03 -2.8141300e-02 0.0000000e+00 
6.2858953e-05 -2.8194937e-02 0.0000000e+00 
1.5247849e-03 -2.8262907e-02 0.0000000e+00 
-3.0208656e-03 -3.0082845e-02 0.0000000e+00 
-1.5018984e-03 -3.0126118e-02 0.0000000e+00 
1.6128749e-05 -3.0183856e-02 0.0000000e+00 
1.5329034e-03 -3.0255991e-02 0.0000000e+00 
-3.1833405e-03 -3.2136737e-02 0.0000000e+00 
-1.6092078e-03 -3.2184224e-02 0.0000000e+00 
-3.6074044e-05 -3.2246234e-02 0.0000000e+00 
1.5357769e-03 -3.2322698e-02 0.0000000e+00 
-3.3519367e-03 -3.4264029e-02 0.0000000e+00 
-1.7224330e-03 -3.4315907e-02 0.0000000e+00 
-9.3987003e-05 -3.4382359e-02 0.0000000e+00 
1.5331454e-03 -3.4463315e-02 0.0000000e+00 
-3.5268488e-03 -3.6464982e-02 0.0000000e+00 
-1.8417901e-03 -3.6521427e-02 0.0000000e+00 
-1.5784742e-04 -3.6592489e-02 0.0000000e+00 
1.5247494e-03 -3.6678104e-02 0.0000000e+00 
-3.7082725e-03 -3.8739827e-02 0.0000000e+00 
-1.9674953e-03 -3.8801014e-02 0.0000000e+00 
-2.2789265e-04 -3.8876858e-02 0.0000000e+00 
1.5103332e-03 -3.8967295e-02 0.0000000e+00 
-3.8964024e-03 -4.1088769e-02 0.0000000e+00 
-2.0997644e-03 -4.1154873e-02 0.0000000e+00 
-3.0435947e-04 -4.1235668e-02 0.0000000e+00 
1.4896382e-03 -4.1331091e-02 0.0000000e+00 
-4.0914318e-03 -4.3511984e-02 0.0000000e+00 
-2.2388126e-03 -4.3583179e-02 0.0000000e+00 
-3.8748422e-04 -4.3669094e-02 0.0000000e+00 
1.4624062e-03 -4.3769667e-02 0.0000000e+00 
-4.2935535e-03 -4.6009620e-02 0.0000000e+00 
-2.3848536e-03 -4.6086082e-02 0.0000000e+00 
-4.7750289e-04 -4.6177284e-02 0.0000000e+00 
1.4283816e-03 -4.6283168e-02 0.0000000e+00 
-4.5029574e-03 -4.8581798e-02 0.0000000e+00 
-2.5381002e-03 -4.8663697e-02 0.0000000e+00 
-5.7464948e-04 -4.8760354e-02 0.0000000e+00 
1.3873049e-03 -4.8871711e-02 0.0000000e+00 
-4.7198330e-03 -5.1228607e-02 0.0000000e+00 
-2.6987631e-03 -5.1316115e-02 0.0000000e+00 
-6.7915670e-04 -5.1418391e-02 0.0000000e+00 
1.3389240e-03 -5.1535381e-02 0.0000000e+00 
-4.9443680e-03 -5.3950110e-02 0.0000000e+00 
-2.8670513e-03 -5.4043397e-02 0.0000000e+00 
-7.9125462e-04 -5.4151456e-02 0.0000000e+00 
1.2829871e-03 -5.4274236e-02 0.0000000e+00 
-5.1767482e-03 -5.6746342e-02 0.0000000e+00 
-3.0431717e-03 -5.6845574e-02 0.0000000e+00 
-9.1117115e-04 -5.6959578e-02 0.0000000e+00 
1.2192459e-03 -5.7088306e-02 0.0000000e+00 
-5.4171565e-03 -5.9617310e-02 0.0000000e+00 
-3.2273283e-03 -5.9722653e-02 0.0000000e+00 
-1.0391314e-03 -5.9842762e-02 0.0000000e+00 
1.1474538e-03 -5.9977591e-02 0.0000000e+00 
-5.6657734e-03 -6.2562992e-02 0.0000000e+00 
-3.4197226e-03 -6.2674610e-02 0.0000000e+00 
-1.1753577e-03 -6.2800981e-02 0.0000000e+00 
1.0673680e-03 -6.2942064e-02 0.0000000e+00 
-5.9227761e-03 -6.5583342e-02 0.0000000e+00 
-3.6205527e-03 -6.5701394e-02 0.0000000e+00 
-1.3200692e-03 -6.5834183e-02 0.0000000e+00 
9.7874837e-04 -6.5981669e-02 0.0000000e+00 
-6.1883381e-03 -6.8678283e-02 0.0000000e+00 
-3.8300132e-03 -6.8802928e-02 0.0000000e+00 
-1.4734815e-03 -6.8942286e-02 0.0000000e+00 
8.8135815e-04 -6.9096323e-02 0.0000000e+00 
-6.4626295e-03 -7.1847712e-02 0.0000000e+00 
-4.0482950e-03 -7.1979104e-02 0.0000000e+00 
-1.6358062e-03 -7.2125182e-02 0.0000000e+00 
7.7496539e-04 -7.2285912e-02 0.0000000e+00 
-6.7458162e-03 -7.5091499e-02 0.0000000e+00 
-4.2755850e-03 -7.5229790e-02 0.0000000e+00 
-1.8072508e-03 -7.5382732e-02 0.0000000e+00 
6.5934148e-04 -7.5550298e-02 0.0000000e+00 
-7.0380599e-03 -7.8409485e-02 0.0000000e+00 
-4.5120655e-03 -7.8554823e-02 0.0000000e+00 
-1.9880185e-03 -7.8714773e-02 0.0000000e+00 
5.3426316e-04 -7.8889311e-02 0.0000000e+00 
-7.3395177e-03 -8.1801485e-02 0.0000000e+00 
-4.7579141e-03 -8.1954015e-02 0.0000000e+00 
-2.1783075e-03 -8.2121113e-02 0.0000000e+00 
3.9951101e-04 -8.2302757e-02 0.0000000e+00 
-7.6503421e-03 -8.5267288e-02 0.0000000e+00 
-5.0133038e-03 -8.5427151e-02 0.0000000e+00 
-2.3783103e-03 -8.5601530e-02 0.0000000e+00 
2.5487095e-04 -8.5790410e-02 0.0000000e+00 
-7.9706822e-03 -8.8806655e-02 0.0000000e+00 
-5.2784024e-03 -8.8973987e-02 0.0000000e+00 
-2.5882148e-03 -8.9155779e-02 0.0000000e+00 
1.0013971e-04 -8.9352022e-02 0.0000000e+00 
-8.3006805e-03 -9.2419324e-02 0.0000000e+00 
-5.5533725e-03 -9.2594256e-02 0.0000000e+00 
-2.8082029e-03 -9.2783590e-02 0.0000000e+00 
-6.4886147e-05 -9.2987317e-02 0.0000000e+00 
-8.6404729e-03 -9.6105003e-02 0.0000000e+00 
-5.8383706e-03 -9.6287666e-02 0.0000000e+00 
-3.0384515e-03 -9.6484662e-02 0.0000000e+00 
-2.4040373e-04 -9.6695991e-02 0.0000000e+00 
-8.9901896e-03 -9.9863378e-02 0.0000000e+00 
-6.1335471e-03 -1.0005389e-01 0.0000000e+00 
-3.2791321e-03 -1.0025867e-01 0.0000000e+00 
-4.2660277e-04 -1.0047771e-01 0.0000000e+00 
-9.3499521e-03 -1.0369410e-01 0.0000000e+00 
-6.4390458e-03 -1.0389259e-01 0.0000000e+00 
-3.5304089e-03 -1.0410526e-01 0.0000000e+00 
-6.2367368e-04 -1.0433213e-01 0.0000000e+00 
-9.7198770e-03 -1.0759681e-01 0.0000000e+00 
-6.7550033e-03 -1.0780338e-01 0.0000000e+00 
-3.7924399e-03 -1.0802405e-01 0.0000000e+00 
-8.3179248e-04 -1.0825884e-01 0.0000000e+00 
-1.0100074e-02 -1.1157109e-01 0.0000000e+00 
-7.0815497e-03 -1.1178585e-01 0.0000000e+00 
-4.0653752e-03 -1.1201463e-01 0.0000000e+00 
-1.0511297e-03 -1.1225744e-01 0.0000000e+00 
-1.0490645e-02 -1.1561653e-01 0.0000000e+00 
-7.4188077e-03 -1.1583959e-01 0.0000000e+00 
-4.3493575e-03 -1.1607656e-01 0.0000000e+00 
-1.2818477e-03 -1.1632748e-01 0.0000000e+00 
-1.0891687e-02 -1.1973267e-01 0.0000000e+00 
-7.7668926e-03 -1.1996412e-01 0.0000000e+00 
-4.6445220e-03 -1.2020938e-01 0.0000000e+00 
-1.5241019e-03 -1.2046850e-01 0.0000000e+00 
-1.1303286e-02 -1.2391903e-01 0.0000000e+00 
-8.1259118e-03 -1.2415896e-01 0.0000000e+00 
-4.9509961e-03 -1.2441260e-01 0.0000000e+00 
-1.7780395e-03 -1.2468000e-01 0.0000000e+00 
-1.1725522e-02 -1.2817511e-01 0.0000000e+00 
-8.4959649e-03 -1.2842360e-01 0.0000000e+00 
-5.2688990e-03 -1.2868570e-01 0.0000000e+00 
-2.0437990e-03 -1.2896145e-01 0.0000000e+00 
-1.2158467e-02 -1.3250038e-01 0.0000000e+00 
-8.8771430e-03 -1.3275752e-01 0.0000000e+00 
-5.5983416e-03 -1.3302814e-01 0.0000000e+00 
-2.3215116e-03 -1.3331231e-01 0.0000000e+00 
-1.2602184e-02 -1.3689429e-01 0.0000000e+00 
-9.2695292e-03 -1.3716013e-01 0.0000000e+00 
-5.9394253e-03 -1.3743935e-01 0.0000000e+00 
-2.6112995e-03 -1.3773200e-01 0.0000000e+00 
-1.3056731e-02 -1.4135624e-01 0.0000000e+00 
-9.6731981e-03 -1.4163086e-01 0.0000000e+00 
-6.2922435e-03 -1.4191873e-01 0.0000000e+00 
-2.9132694e-03 -1.4221992e-01 0.0000000e+00 
-1.3522156e-02 -1.4588564e-01 0.0000000e+00 
-1.0088216e-02 -1.4616910e-01 0.0000000e+00 
-6.6568804e-03 -1.4646568e-01 0.0000000e+00 
-3.2275264e-03 -1.4677544e-01 0.0000000e+00 
-1.3998496e-02 -1.5048186e-01 0.0000000e+00 
-1.0514640e-02 -1.5077420e-01 0.0000000e+00 
-7.0334118e-03 -1.5107954e-01 0.0000000e+00 
-3.5541644e-03 -1.5139793e-01 0.0000000e+00 
-1.4485779e-02 -1.5514425e-01 0.0000000e+00 
-1.0952517e-02 -1.5544552e-01 0.0000000e+00 
-7.4219053e-03 -1.5575964e-01 0.0000000e+00 
-3.8932679e-03 -1.5608670e-01 0.0000000e+00 
-1.4984023e-02 -1.5987211e-01 0.0000000e+00 
-1.1401885e-02 -1.6018236e-01 0.0000000e+00 
-7.8224178e-03 -1.6050531e-01 0.0000000e+00 
-4.2449196e-03 -1.6084104e-01 0.0000000e+00 
-1.5493237e-02 -1.6466476e-01 0.0000000e+00 
-1.1862773e-02 -1.6498400e-01 0.0000000e+00 
-8.2349970e-03 -1.6531580e-01 0.0000000e+00 
-4.6091836e-03 -1.6566024e-01 0.0000000e+00 
-1.6013421e-02 -1.6952146e-01 0.0000000e+00 
-1.2335198e-02 -1.6984972e-01 0.0000000e+00 
-8.6596794e-03 -1.7019038e-01 0.0000000e+00 
-4.9861147e-03 -1.7054354e-01 0.0000000e+00 
-1.6544565e-02 -1.7444144e-01 0.0000000e+00 
-1.2819170e-02 -1.7477874e-01 0.0000000e+00 
-9.0964917e-03 -1.7512827e-01 0.0000000e+00 
-5.3757573e-03 -1.7549016e-01 0.0000000e+00 
-1.7086652e-02 -1.7942394e-01 0.0000000e+00 
-1.3314687e-02 -1.7977027e-01 0.0000000e+00 
-9.5454502e-03 -1.8012868e-01 0.0000000e+00 
-5.7781453e-03 -1.8049929e-01 0.0000000e+00 
-1.7639652e-02 -1.8446815e-01 0.0000000e+00 
-1.3821738e-02 -1.8482352e-01 0.0000000e+00 
-1.0006561e-02 -1.8519080e-01 0.0000000e+00 
-6.1933022e-03 -1.8557012e-01 0.0000000e+00 
-1.8203527e-02 -1.8957324e-01 0.0000000e+00 
-1.4340301e-02 -1.8993764e-01 0.0000000e+00 
-1.0479819e-02 -1.9031378e-01 0.0000000e+00 
-6.6212400e-03 -1.9070179e-01 0.0000000e+00 
-1.8778230e-02 -1.9473837e-01 0.0000000e+00 
-1.4870346e-02 -1.9511179e-01 0.0000000e+00 
-1.0965210e-02 -1.9549676e-01 0.0000000e+00 
-7.0619600e-03 -1.9589344e-01 0.0000000e+00 
-1.9363704e-02 -1.9996267e-01 0.0000000e+00 
-1.5411832e-02 -2.0034508e-01 0.0000000e+00 
-1.1462709e-02 -2.0073886e-01 0.0000000e+00 
-7.5154528e-03 -2.0114417e-01 0.0000000e+00 
-1.9959882e-02 -2.0524525e-01 0.0000000e+00 
-1.5964706e-02 -2.0563661e-01 0.0000000e+00 
-1.1972278e-02 -2.0603917e-01 0.0000000e+00 
-7.9816974e-03 -2.0645307e-01 0.0000000e+00 
-2.0566690e-02 -2.1058521e-01 0.0000000e+00 
-1.6528909e-02 -2.1098548e-01 0.0000000e+00 
-1.2493874e-02 -2.1139676e-01 0.0000000e+00 
-8.4606626e-03 -2.1181921e-01 0.0000000e+00 
-2.1184042e-02 -2.1598160e-01 0.0000000e+00 
-1.7104369e-02 -2.1639075e-01 0.0000000e+00 
-1.3027437e-02 -2.1681070e-01 0.0000000e+00 
-8.9523060e-03 -2.1724164e-01 0.0000000e+00 
-2.1811843e-02 -2.2143350e-01 0.0000000e+00 
-1.7691006e-02 -2.2185145e-01 0.0000000e+00 
-1.3572902e-02 -2.2228002e-01 0.0000000e+00 
-9.4565751e-03 -2.2271939e-01 0.0000000e+00 
-2.2449994e-02 -2.2693992e-01 0.0000000e+00 
-1.8288730e-02 -2.2736662e-01 0.0000000e+00 
-1.4130190e-02 -2.2780375e-01 0.0000000e+00 
-9.9734006e-03 -2.2825148e-01 0.0000000e+00 
-2.3098382e-02 -2.3249990e-01 0.0000000e+00 
-1.8897442e-02 -2.3293528e-01 0.0000000e+00 
-1.4699214e-02 -2.3338088e-01 0.0000000e+00 
-1.0502710e-02 -2.3383689e-01 0.0000000e+00 
-2.3756886e-02 -2.3811243e-01 0.0000000e+00 
-1.9517033e-02 -2.3855642e-01 0.0000000e+00 
-1.5279878e-02 -2.3901042e-01 0.0000000e+00 
-1.1044416e-02 -2.3947463e-01 0.0000000e+00 
-2.4425375e-02 -2.4377651e-01 0.0000000e+00 
-2.0147384e-02 -2.4422902e-01 0.0000000e+00 
-1.5872075e-02 -2.4469133e-01 0.0000000e+00 
-1.1598424e-02 -2.4516364e-01 0.0000000e+00 
-2.5103706e-02 -2.4949111e-01 0.0000000e+00 
-2.0788366e-02 -2.4995204e-01 0.0000000e+00 
-1.6475689e-02 -2.5042256e-01 0.0000000e+00 
-1.2164637e-02 -2.5090289e-01 0.0000000e+00 
-2.5791731e-02 -2.5525518e-01 0.0000000e+00 
-2.1439841e-02 -2.5572443e-01 0.0000000e+00 
-1.7090594e-02 -2.5620306e-01 0.0000000e+00 
-1.2742937e-02 -2.5669129e-01 0.0000000e+00 
-2.6489293e-02 -2.6106765e-01 0.0000000e+00 
-2.2101663e-02 -2.6154512e-01 0.0000000e+00 
-1.7716653e-02 -2.6203176e-01 0.0000000e+00 
-1.3333196e-02 -2.6252778e-01 0.0000000e+00 
-2.7196226e-02 -2.6692746e-01 0.0000000e+00 
-2.2773676e-02 -2.6741303e-01 0.0000000e+00 
-1.8353719e-02 -2.6790755e-01 0.0000000e+00 
-1.3935279e-02 -2.6841125e-01 0.0000000e+00 
-2.7912359e-02 -2.7283352e-01 0.0000000e+00 
-2.3455715e-02 -2.7332707e-01 0.0000000e+00 
-1.9001637e-02 -2.7382936e-01 0.0000000e+00 
-1.4549039e-02 -2.7434060e-01 0.0000000e+00 
-2.8637512e-02 -2.7878472e-01 0.0000000e+00 
-2.4147609e-02 -2.7928613e-01 0.0000000e+00 
-1.9660243e-02 -2.7979605e-01 0.0000000e+00 
-1.5174316e-02 -2.8031471e-01 0.0000000e+00 
-2.9371499e-02 -2.8477997e-01 0.0000000e+00 
-2.4849179e-02 -2.8528910e-01 0.0000000e+00 
-2.0329362e-02 -2.8580651e-01 0.0000000e+00 
-1.5810945e-02 -2.8633245e-01 0.0000000e+00 
-3.0114130e-02 -2.9081814e-01 0.0000000e+00 
-2.5560238e-02 -2.9133485e-01 0.0000000e+00 
-2.1008815e-02 -2.9185963e-01 0.0000000e+00 
-1.6458751e-02 -2.9239271e-01 0.0000000e+00 
-3.0865206e-02 -2.9689811e-01 0.0000000e+00 
-2.6280593e-02 -2.9742227e-01 0.0000000e+00 
-2.1698412e-02 -2.9795426e-01 0.0000000e+00 
-1.7117551e-02 -2.9849433e-01 0.0000000e+00 
-3.1624527e-02 -3.0301877e-01 0.0000000e+00 
-2.7010044e-02 -3.0355021e-01 0.0000000e+00 
-2.2397957e-02 -3.0408926e-01 0.0000000e+00 
-1.7787146e-02 -3.0463617e-01 0.0000000e+00 
-3.2391883e-02 -3.0917897e-01 0.0000000e+00 
-2.7748387e-02 -3.0971754e-01 0.0000000e+00 
-2.3107246e-02 -3.1026350e-01 0.0000000e+00 
-1.8467341e-02 -3.1081710e-01 0.0000000e+00 
-3.3167061e-02 -3.1537758e-01 0.0000000e+00 
-2.8495408e-02 -3.1592313e-01 0.0000000e+00 
-2.3826071e-02 -3.1647584e-01 0.0000000e+00 
-1.9157924e-02 -3.1703596e-01 0.0000000e+00 
-3.3949841e-02 -3.2161347e-01 0.0000000e+00 
-2.9250892e-02 -3.2216583e-01 0.0000000e+00 
-2.4554217e-02 -3.2272512e-01 0.0000000e+00 
-1.9858684e-02 -3.2329160e-01 0.0000000e+00 
-3.4739997e-02 -3.2788549e-01 0.0000000e+00 
-3.0014614e-02 -3.2844449e-01 0.0000000e+00 
-2.5291461e-02 -3.2901020e-01 0.0000000e+00 
-2.0569405e-02 -3.2958287e-01 0.0000000e+00 
-3.5537300e-02 -3.3419250e-01 0.0000000e+00 
-3.0786347e-02 -3.3475797e-01 0.0000000e+00 
-2.6037577e-02 -3.3532992e-01 0.0000000e+00 
-2.1289860e-02 -3.3590861e-01 0.0000000e+00 
-3.6341519e-02 -3.4053335e-01 0.0000000e+00 
-3.1565858e-02 -3.4110512e-01 0.0000000e+00 
-2.6792332e-02 -3.4168314e-01 0.0000000e+00 
-2.2019814e-02 -3.4226767e-01 0.0000000e+00 
-3.7152420e-02 -3.4690691e-01 0.0000000e+00 
-3.2352911e-02 -3.4748479e-01 0.0000000e+00 
-2.7555488e-02 -3.4806869e-01 0.0000000e+00 
-2.2759028e-02 -3.4865889e-01 0.0000000e+00 
-3.7969766e-02 -3.5331202e-01 0.0000000e+00 
-3.3147266e-02 -3.5389583e-01 0.0000000e+00 
-2.8326803e-02 -3.5448545e-01 0.0000000e+00 
-2.3507255e-02 -3.5508113e-01 0.0000000e+00 
-3.8793319e-02 -3.5974755e-01 0.0000000e+00 
-3.3948683e-02 -3.6033711e-01 0.0000000e+00 
-2.9106031e-02 -3.6093225e-01 0.0000000e+00 
-2.4264249e-02 -3.6153323e-01 0.0000000e+00 
-3.9622841e-02 -3.6621237e-01 0.0000000e+00 
-3.4756915e-02 -3.6680749e-01 0.0000000e+00 
-2.9892921e-02 -3.6740797e-01 0.0000000e+00 
-2.5029753e-02 -3.6801407e-01 0.0000000e+00 
-4.0458091e-02 -3.7270536e-01 0.0000000e+00 
-3.5571718e-02 -3.7330585e-01 0.0000000e+00 
-3.0687223e-02 -3.7391147e-01 0.0000000e+00 
-2.5803510e-02 -3.7452250e-01 0.0000000e+00 
-4.1298830e-02 -3.7922539e-01 0.0000000e+00 
-3.6392844e-02 -3.7983106e-01 0.0000000e+00 
-3.1488682e-02 -3.8044165e-01 0.0000000e+00 
-2.6585257e-02 -3.8105742e-01 0.0000000e+00 
-4.2144820e-02 -3.8577135e-01 0.0000000e+00 
-3.7220048e-02 -3.8638202e-01 0.0000000e+00 
-3.2297043e-02 -3.8699738e-01 0.0000000e+00 
-2.7374732e-02 -3.8761771e-01 0.0000000e+00 
-4.2995824e-02 -3.9234217e-01 0.0000000e+00 
-3.8053081e-02 -3.9295762e-01 0.0000000e+00 
-3.3112048e-02 -3.9357758e-01 0.0000000e+00 
-2.8171668e-02 -3.9420228e-01 0.0000000e+00 
-4.3851606e-02 -3.9893674e-01 0.0000000e+00 