# vtk DataFile Version 4.0
vtk output
ASCII
DATASET UNSTRUCTURED_GRID
POINTS 604 float
5.5000000e+00 5.9700000e+00 0.0000000e+00 
5.5000000e+00 5.9900000e+00 0.0000000e+00 
5.5266667e+00 5.9700000e+00 0.0000000e+00 
5.5266667e+00 5.9900000e+00 0.0000000e+00 
5.5000000e+00 6.0100000e+00 0.0000000e+00 
5.5266667e+00 6.0100000e+00 0.0000000e+00 
5.5533333e+00 5.9700000e+00 0.0000000e+00 
5.5533333e+00 5.9900000e+00 0.0000000e+00 
5.5000000e+00 6.0300000e+00 0.0000000e+00 
5.5266667e+00 6.0300000e+00 0.0000000e+00 
5.5533333e+00 6.0100000e+00 0.0000000e+00 
5.5800000e+00 5.9700000e+00 0.0000000e+00 
5.5533333e+00 6.0300000e+00 0.0000000e+00 
5.5800000e+00 5.9900000e+00 0.0000000e+00 
5.5800000e+00 6.0100000e+00 0.0000000e+00 
5.5800000e+00 6.0300000e+00 0.0000000e+00 
5.6066667e+00 5.9700000e+00 0.0000000e+00 
5.6066667e+00 5.9900000e+00 0.0000000e+00 
5.6066667e+00 6.0100000e+00 0.0000000e+00 
5.6066667e+00 6.0300000e+00 0.0000000e+00 
5.6333333e+00 5.9700000e+00 0.0000000e+00 
5.6333333e+00 5.9900000e+00 0.0000000e+00 
5.6333333e+00 6.0100000e+00 0.0000000e+00 
5.6333333e+00 6.0300000e+00 0.0000000e+00 
5.6600000e+00 5.9700000e+00 0.0000000e+00 
5.6600000e+00 5.9900000e+00 0.0000000e+00 
5.6600000e+00 6.0100000e+00 0.0000000e+00 
5.6600000e+00 6.0300000e+00 0.0000000e+00 
5.6866667e+00 5.9700000e+00 0.0000000e+00 
5.6866667e+00 5.9900000e+00 0.0000000e+00 
5.6866667e+00 6.0100000e+00 0.0000000e+00 
5.6866667e+00 6.0300000e+00 0.0000000e+00 
5.7133333e+00 5.9700000e+00 0.0000000e+00 
5.7133333e+00 5.9900000e+00 0.0000000e+00 
5.7133333e+00 6.0100000e+00 0.0000000e+00 
5.7133333e+00 6.0300000e+00 0.0000000e+00 
5.7400000e+00 5.9700000e+00 0.0000000e+00 
5.7400000e+00 5.9900000e+00 0.0000000e+00 
5.7400000e+00 6.0100000e+00 0.0000000e+00 
5.7400000e+00 6.0300000e+00 0.0000000e+00 
5.7666667e+00 5.9700000e+00 0.0000000e+00 
5.7666667e+00 5.9900000e+00 0.0000000e+00 
5.7666667e+00 6.0100000e+00 0.0000000e+00 
5.7666667e+00 6.0300000e+00 0.0000000e+00 
5.7933333e+00 5.9700000e+00 0.0000000e+00 
5.7933333e+00 5.9900000e+00 0.0000000e+00 
5.7933333e+00 6.0100000e+00 0.0000000e+00 
5.7933333e+00 6.0300000e+00 0.0000000e+00 
5.8200000e+00 5.9700000e+00 0.0000000e+00 
5.8200000e+00 5.9900000e+00 0.0000000e+00 
5.8200000e+00 6.0100000e+00 0.0000000e+00 
5.8200000e+00 6.0300000e+00 0.0000000e+00 
5.8466667e+00 5.9700000e+00 0.0000000e+00 
5.8466667e+00 5.9900000e+00 0.0000000e+00 
5.8466667e+00 6.0100000e+00 0.0000000e+00 
5.8466667e+00 6.0300000e+00 0.0000000e+00 
5.8733333e+00 5.9700000e+00 0.0000000e+00 
5.8733333e+00 5.9900000e+00 0.0000000e+00 
5.8733333e+00 6.0100000e+00 0.0000000e+00 
5.8733333e+00 6.0300000e+00 0.0000000e+00 
5.9000000e+00 5.9700000e+00 0.0000000e+00 
5.9000000e+00 5.9900000e+00 0.0000000e+00 
5.9000000e+00 6.0100000e+00 0.0000000e+00 
5.9000000e+00 6.0300000e+00 0.0000000e+00 
5.9266667e+00 5.9700000e+00 0.0000000e+00 
5.9266667e+00 5.9900000e+00 0.0000000e+00 
5.9266667e+00 6.0100000e+00 0.0000000e+00 
5.9266667e+00 6.0300000e+00 0.0000000e+00 
5.9533333e+00 5.9700000e+00 0.0000000e+00 
5.9533333e+00 5.9900000e+00 0.0000000e+00 
5.9533333e+00 6.0100000e+00 0.0000000e+00 
5.9533333e+00 6.0300000e+00 0.0000000e+00 
5.9800000e+00 5.9700000e+00 0.0000000e+00 
5.9800000e+00 5.9900000e+00 0.0000000e+00 
5.9800000e+00 6.0100000e+00 0.0000000e+00 
5.9800000e+00 6.0300000e+00 0.0000000e+00 
6.0066667e+00 5.9700000e+00 0.0000000e+00 
6.0066667e+00 5.9900000e+00 0.0000000e+00 
6.0066667e+00 6.0100000e+00 0.0000000e+00 
6.0066667e+00 6.0300000e+00 0.0000000e+00 
6.0333333e+00 5.9700000e+00 0.0000000e+00 
6.0333333e+00 5.9900000e+00 0.0000000e+00 
6.0333333e+00 6.0100000e+00 0.0000000e+00 
6.0333333e+00 6.0300000e+00 0.0000000e+00 
6.0600000e+00 5.9700000e+00 0.0000000e+00 
6.0600000e+00 5.9900000e+00 0.0000000e+00 
6.0600000e+00 6.0100000e+00 0.0000000e+00 
6.0600000e+00 6.0300000e+00 0.0000000e+00 
6.0866667e+00 5.9700000e+00 0.0000000e+00 
6.0866667e+00 5.9900000e+00 0.0000000e+00 
6.0866667e+00 6.0100000e+00 0.0000000e+00 
6.0866667e+00 6.0300000e+00 0.0000000e+00 
6.1133333e+00 5.9700000e+00 0.0000000e+00 
6.1133333e+00 5.9900000e+00 0.0000000e+00 
6.1133333e+00 6.0100000e+00 0.0000000e+00 
6.1133333e+00 6.0300000e+00 0.0000000e+00 
6.1400000e+00 5.9700000e+00 0.0000000e+00 
6.1400000e+00 5.9900000e+00 0.0000000e+00 
6.1400000e+00 6.0100000e+00 0.0000000e+00 
6.1400000e+00 6.0300000e+00 0.0000000e+00 
6.1666667e+00 5.9700000e+00 0.0000000e+00 
6.1666667e+00 5.9900000e+00 0.0000000e+00 
6.1666667e+00 6.0100000e+00 0.0000000e+00 
6.1666667e+00 6.0300000e+00 0.0000000e+00 
6.1933333e+00 5.9700000e+00 0.0000000e+00 
6.1933333e+00 5.9900000e+00 0.0000000e+00 
6.1933333e+00 6.0100000e+00 0.0000000e+00 
6.1933333e+00 6.0300000e+00 0.0000000e+00 
6.2200000e+00 5.9700000e+00 0.0000000e+00 
6.2200000e+00 5.9900000e+00 0.0000000e+00 
6.2200000e+00 6.0100000e+00 0.0000000e+00 
6.2200000e+00 6.0300000e+00 0.0000000e+00 
6.2466667e+00 5.9700000e+00 0.0000000e+00 
6.2466667e+00 5.9900000e+00 0.0000000e+00 
6.2466667e+00 6.0100000e+00 0.0000000e+00 
6.2466667e+00 6.0300000e+00 0.0000000e+00 
6.2733333e+00 5.9700000e+00 0.0000000e+00 
6.2733333e+00 5.9900000e+00 0.0000000e+00 
6.2733333e+00 6.0100000e+00 0.0000000e+00 
6.2733333e+00 6.0300000e+00 0.0000000e+00 
6.3000000e+00 5.9700000e+00 0.0000000e+00 
6.3000000e+00 5.9900000e+00 0.0000000e+00 
6.3000000e+00 6.0100000e+00 0.0000000e+00 
6.3000000e+00 6.0300000e+00 0.0000000e+00 
6.3266667e+00 5.9700000e+00 0.0000000e+00 
6.3266667e+00 5.9900000e+00 0.0000000e+00 
6.3266667e+00 6.0100000e+00 0.0000000e+00 
6.3266667e+00 6.0300000e+00 0.0000000e+00 
6.3533333e+00 5.9700000e+00 0.0000000e+00 
6.3533333e+00 5.9900000e+00 0.0000000e+00 
6.3533333e+00 6.0100000e+00 0.0000000e+00 
6.3533333e+00 6.0300000e+00 0.0000000e+00 
6.3800000e+00 5.9700000e+00 0.0000000e+00 
6.3800000e+00 5.9900000e+00 0.0000000e+00 
6.3800000e+00 6.0100000e+00 0.0000000e+00 
6.3800000e+00 6.0300000e+00 0.0000000e+00 
6.4066667e+00 5.9700000e+00 0.0000000e+00 
6.4066667e+00 5.9900000e+00 0.0000000e+00 
6.4066667e+00 6.0100000e+00 0.0000000e+00 
6.4066667e+00 6.0300000e+00 0.0000000e+00 
6.4333333e+00 5.9700000e+00 0.0000000e+00 
6.4333333e+00 5.9900000e+00 0.0000000e+00 
6.4333333e+00 6.0100000e+00 0.0000000e+00 
6.4333333e+00 6.0300000e+00 0.0000000e+00 
6.4600000e+00 5.9700000e+00 0.0000000e+00 
6.4600000e+00 5.9900000e+00 0.0000000e+00 
6.4600000e+00 6.0100000e+00 0.0000000e+00 
6.4600000e+00 6.0300000e+00 0.0000000e+00 
6.4866667e+00 5.9700000e+00 0.0000000e+00 
6.4866667e+00 5.9900000e+00 0.0000000e+00 
6.4866667e+00 6.0100000e+00 0.0000000e+00 
6.4866667e+00 6.0300000e+00 0.0000000e+00 
6.5133333e+00 5.9700000e+00 0.0000000e+00 
6.5133333e+00 5.9900000e+00 0.0000000e+00 
6.5133333e+00 6.0100000e+00 0.0000000e+00 
6.5133333e+00 6.0300000e+00 0.0000000e+00 
6.5400000e+00 5.9700000e+00 0.0000000e+00 
6.5400000e+00 5.9900000e+00 0.0000000e+00 
6.5400000e+00 6.0100000e+00 0.0000000e+00 
6.5400000e+00 6.0300000e+00 0.0000000e+00 
6.5666667e+00 5.9700000e+00 0.0000000e+00 
6.5666667e+00 5.9900000e+00 0.0000000e+00 
6.5666667e+00 6.0100000e+00 0.0000000e+00 
6.5666667e+00 6.0300000e+00 0.0000000e+00 
6.5933333e+00 5.9700000e+00 0.0000000e+00 
6.5933333e+00 5.9900000e+00 0.0000000e+00 
6.5933333e+00 6.0100000e+00 0.0000000e+00 
6.5933333e+00 6.0300000e+00 0.0000000e+00 
6.6200000e+00 5.9700000e+00 0.0000000e+00 
6.6200000e+00 5.9900000e+00 0.0000000e+00 
6.6200000e+00 6.0100000e+00 0.0000000e+00 
6.6200000e+00 6.0300000e+00 0.0000000e+00 
6.6466667e+00 5.9700000e+00 0.0000000e+00 
6.6466667e+00 5.9900000e+00 0.0000000e+00 
6.6466667e+00 6.0100000e+00 0.0000000e+00 
6.6466667e+00 6.0300000e+00 0.0000000e+00 
6.6733333e+00 5.9700000e+00 0.0000000e+00 
6.6733333e+00 5.9900000e+00 0.0000000e+00 
6.6733333e+00 6.0100000e+00 0.0000000e+00 
6.6733333e+00 6.0300000e+00 0.0000000e+00 
6.7000000e+00 5.9700000e+00 0.0000000e+00 
6.7000000e+00 5.9900000e+00 0.0000000e+00 
6.7000000e+00 6.0100000e+00 0.0000000e+00 
6.7000000e+00 6.0300000e+00 0.0000000e+00 
6.7266667e+00 5.9700000e+00 0.0000000e+00 
6.7266667e+00 5.9900000e+00 0.0000000e+00 
6.7266667e+00 6.0100000e+00 0.0000000e+00 
6.7266667e+00 6.0300000e+00 0.0000000e+00 
6.7533333e+00 5.9700000e+00 0.0000000e+00 
6.7533333e+00 5.9900000e+00 0.0000000e+00 
6.7533333e+00 6.0100000e+00 0.0000000e+00 
6.7533333e+00 6.0300000e+00 0.0000000e+00 
6.7800000e+00 5.9700000e+00 0.0000000e+00 
6.7800000e+00 5.9900000e+00 0.0000000e+00 
6.7800000e+00 6.0100000e+00 0.0000000e+00 
6.7800000e+00 6.0300000e+00 0.0000000e+00 
6.8066667e+00 5.9700000e+00 0.0000000e+00 
6.8066667e+00 5.9900000e+00 0.0000000e+00 
6.8066667e+00 6.0100000e+00 0.0000000e+00 
6.8066667e+00 6.0300000e+00 0.0000000e+00 
6.8333333e+00 5.9700000e+00 0.0000000e+00 
6.8333333e+00 5.9900000e+00 0.0000000e+00 
6.8333333e+00 6.0100000e+00 0.0000000e+00 
6.8333333e+00 6.0300000e+00 0.0000000e+00 
6.8600000e+00 5.9700000e+00 0.0000000e+00 
6.8600000e+00 5.9900000e+00 0.0000000e+00 
6.8600000e+00 6.0100000e+00 0.0000000e+00 
6.8600000e+00 6.0300000e+00 0.0000000e+00 
6.8866667e+00 5.9700000e+00 0.0000000e+00 
6.8866667e+00 5.9900000e+00 0.0000000e+00 
6.8866667e+00 6.0100000e+00 0.0000000e+00 
6.8866667e+00 6.0300000e+00 0.0000000e+00 
6.9133333e+00 5.9700000e+00 0.0000000e+00 
6.9133333e+00 5.9900000e+00 0.0000000e+00 
6.9133333e+00 6.0100000e+00 0.0000000e+00 
6.9133333e+00 6.0300000e+00 0.0000000e+00 
6.9400000e+00 5.9700000e+00 0.0000000e+00 
6.9400000e+00 5.9900000e+00 0.0000000e+00 
6.9400000e+00 6.0100000e+00 0.0000000e+00 
6.9400000e+00 6.0300000e+00 0.0000000e+00 
6.9666667e+00 5.9700000e+00 0.0000000e+00 
6.9666667e+00 5.9900000e+00 0.0000000e+00 
6.9666667e+00 6.0100000e+00 0.0000000e+00 
6.9666667e+00 6.0300000e+00 0.0000000e+00 
6.9933333e+00 5.9700000e+00 0.0000000e+00 
6.9933333e+00 5.9900000e+00 0.0000000e+00 
6.9933333e+00 6.0100000e+00 0.0000000e+00 
6.9933333e+00 6.0300000e+00 0.0000000e+00 
7.0200000e+00 5.9700000e+00 0.0000000e+00 
7.0200000e+00 5.9900000e+00 0.0000000e+00 
[...]
POINT_DATA 604
FIELD FieldData 2
DISPLACEMENT 3 604  float
0.0000000e+00 0.0000000e+00 0.0000000e+00 
0.0000000e+00 0.0000000e+00 0.0000000e+00 
-1.2417132e-04 -7.1857503e-05 0.0000000e+00 
-4.0071394e-05 -4.5813719e-05 0.0000000e+00 
0.0000000e+00 0.0000000e+00 0.0000000e+00 
3.9246992e-05 -4.6026534e-05 0.0000000e+00 
-2.5336394e-04 -2.3486780e-04 0.0000000e+00 
-8.5561886e-05 -2.1356563e-04 0.0000000e+00 
0.0000000e+00 0.0000000e+00 0.0000000e+00 
1.2320519e-04 -7.2411550e-05 0.0000000e+00 
8.2982310e-05 -2.1435411e-04 0.0000000e+00 
-3.8402545e-04 -5.1475350e-04 0.0000000e+00 
2.5043248e-04 -2.3711407e-04 0.0000000e+00 
-1.2998777e-04 -4.9380745e-04 0.0000000e+00 
1.2375589e-04 -4.9549268e-04 0.0000000e+00 
3.7722030e-04 -5.1969295e-04 0.0000000e+00 
-5.1625355e-04 -9.0820761e-04 0.0000000e+00 
-1.7625454e-04 -8.8855585e-04 0.0000000e+00 
1.6344961e-04 -8.9151380e-04 0.0000000e+00 
5.0268296e-04 -9.1697058e-04 0.0000000e+00 
-6.5061053e-04 -1.4157796e-03 0.0000000e+00 
-2.2448871e-04 -1.3977421e-03 0.0000000e+00 
2.0121632e-04 -1.4023468e-03 0.0000000e+00 
6.2637808e-04 -1.4294807e-03 0.0000000e+00 
-7.8754715e-04 -2.0375672e-03 0.0000000e+00 
-2.7521565e-04 -2.0215278e-03 0.0000000e+00 
2.3658859e-04 -2.0281513e-03 0.0000000e+00 
7.4776395e-04 -2.0573246e-03 0.0000000e+00 
-9.2752919e-04 -2.7736803e-03 0.0000000e+00 
-3.2891806e-04 -2.7600172e-03 0.0000000e+00 
2.6905431e-04 -2.7690324e-03 0.0000000e+00 
8.6631295e-04 -2.8006131e-03 0.0000000e+00 
-1.0710224e-03 -3.6241959e-03 0.0000000e+00 
-3.8608345e-04 -3.6132884e-03 0.0000000e+00 
2.9810515e-04 -3.6250687e-03 0.0000000e+00 
9.8149514e-04 -3.6594245e-03 0.0000000e+00 
-1.2184924e-03 -4.5891642e-03 0.0000000e+00 
-4.4719920e-04 -4.5813912e-03 0.0000000e+00 
3.2323228e-04 -4.5963099e-03 0.0000000e+00 
1.0927805e-03 -4.6338087e-03 0.0000000e+00 
-1.3704049e-03 -5.6686065e-03 0.0000000e+00 
-5.1275241e-04 -5.6643468e-03 0.0000000e+00 
3.4392727e-04 -5.6827768e-03 0.0000000e+00 
1.1996389e-03 -5.7237860e-03 0.0000000e+00 
-1.5272249e-03 -6.8625170e-03 0.0000000e+00 
-5.8322944e-04 -6.8621483e-03 0.0000000e+00 
3.5968220e-04 -6.8844617e-03 0.0000000e+00 
1.3015419e-03 -6.9293480e-03 0.0000000e+00 
-1.6894159e-03 -8.1708609e-03 0.0000000e+00 
-6.5911547e-04 -8.1747602e-03 0.0000000e+00 
3.6999067e-04 -8.2013282e-03 0.0000000e+00 
1.3979606e-03 -8.2504570e-03 0.0000000e+00 
-1.8574402e-03 -9.5935764e-03 0.0000000e+00 
-7.4089405e-04 -9.6021188e-03 0.0000000e+00 
3.7434782e-04 -9.6333108e-03 0.0000000e+00 
1.4883697e-03 -9.6870466e-03 0.0000000e+00 
-2.0317582e-03 -1.1130573e-02 0.0000000e+00 
-8.2904668e-04 -1.1144132e-02 0.0000000e+00 
3.7225123e-04 -1.1180316e-02 0.0000000e+00 
1.5722456e-03 -1.1239021e-02 0.0000000e+00 
-2.2128281e-03 -1.2781734e-02 0.0000000e+00 
-9.2405239e-04 -1.2800681e-02 0.0000000e+00 
3.6320097e-04 -1.2842223e-02 0.0000000e+00 
1.6490680e-03 -1.2906257e-02 0.0000000e+00 
-2.4011051e-03 -1.4546914e-02 0.0000000e+00 
-1.0263873e-03 -1.4571618e-02 0.0000000e+00 
3.4670037e-04 -1.4618881e-02 0.0000000e+00 
1.7183194e-03 -1.4688603e-02 0.0000000e+00 
-2.5970414e-03 -1.6425942e-02 0.0000000e+00 
-1.1365241e-03 -1.6456768e-02 0.0000000e+00 
3.2225629e-04 -1.6510113e-02 0.0000000e+00 
1.7794860e-03 -1.6585879e-02 0.0000000e+00 
-2.8010859e-03 -1.8418619e-02 0.0000000e+00 
-1.2549318e-03 -1.8455932e-02 0.0000000e+00 
2.8937954e-04 -1.8515715e-02 0.0000000e+00 
1.8320592e-03 -1.8597877e-02 0.0000000e+00 
-3.0136834e-03 -2.0524722e-02 0.0000000e+00 
-1.3820751e-03 -2.0568880e-02 0.0000000e+00 
2.4758547e-04 -2.0635457e-02 0.0000000e+00 
1.8755340e-03 -2.0724364e-02 0.0000000e+00 
-3.2352745e-03 -2.2744001e-02 0.0000000e+00 
-1.5184144e-03 -2.2795359e-02 0.0000000e+00 
1.9639439e-04 -2.2869080e-02 0.0000000e+00 
1.9094109e-03 -2.2965077e-02 0.0000000e+00 
-3.4662956e-03 -2.5076178e-02 0.0000000e+00 
-1.6644051e-03 -2.5135090e-02 0.0000000e+00 
1.3533172e-04 -2.5216301e-02 0.0000000e+00 
1.9331975e-03 -2.5319731e-02 0.0000000e+00 
-3.7071779e-03 -2.7520956e-02 0.0000000e+00 
-1.8204971e-03 -2.7587768e-02 0.0000000e+00 
6.3928442e-05 -2.7676812e-02 0.0000000e+00 
1.9464055e-03 -2.7788011e-02 0.0000000e+00 
-3.9583461e-03 -3.0078008e-02 0.0000000e+00 
-1.9871349e-03 -3.0153063e-02 0.0000000e+00 
-1.8278604e-05 -3.0250279e-02 0.0000000e+00 
1.9485526e-03 -3.0369580e-02 0.0000000e+00 
-4.2202197e-03 -3.2746985e-02 0.0000000e+00 
-2.1647563e-03 -3.2830621e-02 0.0000000e+00 
-1.1174672e-04 -3.2936341e-02 0.0000000e+00 
1.9391636e-03 -3.3064073e-02 0.0000000e+00 
-4.4932106e-03 -3.5527512e-02 0.0000000e+00 
-2.3537931e-03 -3.5620063e-02 0.0000000e+00 
-2.1692611e-04 -3.5734613e-02 0.0000000e+00 
1.9177675e-03 -3.5871099e-02 0.0000000e+00 
-4.7777252e-03 -3.8419189e-02 0.0000000e+00 
-2.5546696e-03 -3.8520981e-02 0.0000000e+00 
-3.3426015e-04 -3.8644686e-02 0.0000000e+00 
1.8839035e-03 -3.8790244e-02 0.0000000e+00 
-5.0741622e-03 -4.1421593e-02 0.0000000e+00 
-2.7678033e-03 -4.1532948e-02 0.0000000e+00 
-4.6418437e-04 -4.1666125e-02 0.0000000e+00 
1.8371175e-03 -4.1821066e-02 0.0000000e+00 
-5.3829135e-03 -4.4534276e-02 0.0000000e+00 
-2.9936040e-03 -4.4655510e-02 0.0000000e+00 
-6.0712667e-04 -4.4798469e-02 0.0000000e+00 
1.7769640e-03 -4.4963100e-02 0.0000000e+00 
-5.7043629e-03 -4.7756766e-02 0.0000000e+00 
-3.2324735e-03 -4.7888190e-02 0.0000000e+00 
-7.6350660e-04 -4.8041235e-02 0.0000000e+00 
1.7030053e-03 -4.8215857e-02 0.0000000e+00 
-6.0388864e-03 -5.1088571e-02 0.0000000e+00 
-3.4848054e-03 -5.1230486e-02 0.0000000e+00 
-9.3373545e-04 -5.1393916e-02 0.0000000e+00 
1.6148131e-03 -5.1578823e-02 0.0000000e+00 
-6.3868515e-03 -5.4529172e-02 0.0000000e+00 
-3.7509847e-03 -5.4681875e-02 0.0000000e+00 
-1.1182156e-03 -5.4855982e-02 0.0000000e+00 
1.5119673e-03 -5.5051460e-02 0.0000000e+00 
-6.7486167e-03 -5.8078029e-02 0.0000000e+00 
-4.0313874e-03 -5.8241810e-02 0.0000000e+00 
-1.3173403e-03 -5.8426879e-02 0.0000000e+00 
1.3940572e-03 -5.8633209e-02 0.0000000e+00 
-7.1245320e-03 -6.1734580e-02 0.0000000e+00 
-4.3263802e-03 -6.1909721e-02 0.0000000e+00 
-1.5314933e-03 -6.2106030e-02 0.0000000e+00 
1.2606827e-03 -6.2323486e-02 0.0000000e+00 
-7.5149376e-03 -6.5498240e-02 0.0000000e+00 
-4.6363204e-03 -6.5685016e-02 0.0000000e+00 
-1.7610488e-03 -6.5892835e-02 0.0000000e+00 
1.1114524e-03 -6.6121682e-02 0.0000000e+00 
-7.9201648e-03 -6.9368402e-02 0.0000000e+00 
-4.9615556e-03 -6.9567081e-02 0.0000000e+00 
-2.0063702e-03 -6.9786673e-02 0.0000000e+00 
9.4598571e-04 -7.0027171e-02 0.0000000e+00 
-8.3405355e-03 -7.3344440e-02 0.0000000e+00 
-5.3024233e-03 -7.3555280e-02 0.0000000e+00 
-2.2678112e-03 -7.3786901e-02 0.0000000e+00 
7.6391541e-04 -7.4039300e-02 0.0000000e+00 
-8.7763612e-03 -7.7425704e-02 0.0000000e+00 
-5.6592508e-03 -7.7648958e-02 0.0000000e+00 
-2.5457150e-03 -7.7892854e-02 0.0000000e+00 
5.6488183e-04 -7.8157399e-02 0.0000000e+00 
-9.2279418e-03 -8.1611527e-02 0.0000000e+00 
-6.0323547e-03 -8.1847437e-02 0.0000000e+00 
-2.8404140e-03 -8.2103849e-02 0.0000000e+00 
3.4853600e-04 -8.2380774e-02 0.0000000e+00 
-9.6955671e-03 -8.5901217e-02 0.0000000e+00 
-6.4220404e-03 -8.6150019e-02 0.0000000e+00 
-3.1522303e-03 -8.6419177e-02 0.0000000e+00 
1.1454136e-04 -8.6708708e-02 0.0000000e+00 
-1.0179514e-02 -9.0294064e-02 0.0000000e+00 
-6.8286021e-03 -9.0555984e-02 0.0000000e+00 
-3.4814739e-03 -9.0838110e-02 0.0000000e+00 
-1.3743151e-04 -9.1140466e-02 0.0000000e+00 
-1.0680049e-02 -9.4789333e-02 0.0000000e+00 
-7.2523220e-03 -9.5064590e-02 0.0000000e+00 
-3.8284437e-03 -9.5359896e-02 0.0000000e+00 
-4.0769577e-04 -9.5675286e-02 0.0000000e+00 
-1.1197427e-02 -9.9386272e-02 0.0000000e+00 
-7.6934708e-03 -9.9675073e-02 0.0000000e+00 
-4.1934258e-03 -9.9983764e-02 0.0000000e+00 
-6.9655376e-04 -1.0031239e-01 0.0000000e+00 
-1.1731891e-02 -1.0408411e-01 0.0000000e+00 
-8.1523072e-03 -1.0438665e-01 0.0000000e+00 
-4.5766946e-03 -1.0470892e-01 0.0000000e+00 
-1.0042947e-03 -1.0505097e-01 0.0000000e+00 
-1.2283672e-02 -1.0888204e-01 0.0000000e+00 
-8.6290775e-03 -1.0919852e-01 0.0000000e+00 
-4.9785116e-03 -1.0953455e-01 0.0000000e+00 
-1.3311962e-03 -1.0989021e-01 0.0000000e+00 
-1.2852988e-02 -1.1377925e-01 0.0000000e+00 
-9.1240153e-03 -1.1410985e-01 0.0000000e+00 
-5.3991260e-03 -1.1445982e-01 0.0000000e+00 
-1.6775222e-03 -1.1482926e-01 0.0000000e+00 
-1.3440045e-02 -1.1877492e-01 0.0000000e+00 
-9.6373415e-03 -1.1911979e-01 0.0000000e+00 
-5.8387741e-03 -1.1948388e-01 0.0000000e+00 
-2.0435244e-03 -1.1986726e-01 0.0000000e+00 
-1.4045036e-02 -1.2386818e-01 0.0000000e+00 
-1.0169264e-02 -1.2422750e-01 0.0000000e+00 
-6.2976788e-03 -1.2460585e-01 0.0000000e+00 
-2.4294412e-03 -1.2500332e-01 0.0000000e+00 
-1.4668138e-02 -1.2905815e-01 0.0000000e+00 
-1.0719977e-02 -1.2943207e-01 0.0000000e+00 
-6.7760498e-03 -1.2982483e-01 0.0000000e+00 
-2.8354971e-03 -1.3023654e-01 0.0000000e+00 
-1.5309519e-02 -1.3434395e-01 0.0000000e+00 
-1.1289662e-02 -1.3473260e-01 0.0000000e+00 
-7.2740832e-03 -1.3513991e-01 0.0000000e+00 
-3.2619034e-03 -1.3556599e-01 0.0000000e+00 
-1.5969331e-02 -1.3972466e-01 0.0000000e+00 
-1.1878487e-02 -1.4012817e-01 0.0000000e+00 
-7.7919612e-03 -1.4055016e-01 0.0000000e+00 
-3.7088571e-03 -1.4099072e-01 0.0000000e+00 
-1.6647712e-02 -1.4519934e-01 0.0000000e+00 
-1.2486603e-02 -1.4561784e-01 0.0000000e+00 
-8.3298521e-03 -1.4605461e-01 0.0000000e+00 
-4.1765414e-03 -1.4650978e-01 0.0000000e+00 
-1.7344786e-02 -1.5076703e-01 0.0000000e+00 
-1.3114151e-02 -1.5120063e-01 0.0000000e+00 
-8.8879090e-03 -1.5165229e-01 0.0000000e+00 
-4.6651255e-03 -1.5212216e-01 0.0000000e+00 
-1.8060667e-02 -1.5642678e-01 0.0000000e+00 
-1.3761256e-02 -1.5687556e-01 0.0000000e+00 
-9.4662715e-03 -1.5734221e-01 0.0000000e+00 
-5.1747594e-03 -1.5782687e-01 0.0000000e+00 
-1.8795450e-02 -1.6217757e-01 0.0000000e+00 
-1.4428029e-02 -1.6264163e-01 0.0000000e+00 
-1.0065065e-02 -1.6312335e-01 0.0000000e+00 
-5.7055834e-03 -1.6362289e-01 0.0000000e+00 
-1.9549218e-02 -1.6801841e-01 0.0000000e+00 
-1.5114567e-02 -1.6849782e-01 0.0000000e+00 
-1.0684399e-02 -1.6899469e-01 0.0000000e+00 
-6.2577225e-03 -1.6950916e-01 0.0000000e+00 
-2.0322039e-02 -1.7394827e-01 0.0000000e+00 
-1.5820951e-02 -1.7444309e-01 0.0000000e+00 
-1.1324372e-02 -1.7495516e-01 0.0000000e+00 
-6.8312862e-03 -1.7548464e-01 0.0000000e+00 
-2.1113963e-02 -1.7996609e-01 0.0000000e+00 
-1.6547249e-02 -1.8047639e-01 0.0000000e+00 
-1.1985063e-02 -1.8100371e-01 0.0000000e+00 
-7.4263741e-03 -1.8154823e-01 0.0000000e+00 
-2.1925027e-02 -1.8607081e-01 0.0000000e+00 
-1.7293510e-02 -1.8659662e-01 0.0000000e+00 
-1.2666540e-02 -1.8713924e-01 0.0000000e+00 
-8.0430646e-03 -1.8769883e-01 0.0000000e+00 
-2.2755253e-02 -1.9226135e-01 0.0000000e+00 
-1.8059771e-02 -1.9280270e-01 0.0000000e+00 
-1.3368851e-02 -1.9336063e-01 0.0000000e+00 
-8.6814220e-03 -1.9393533e-01 0.0000000e+00 
-2.3604648e-02 -1.9853660e-01 0.0000000e+00 
-1.8846053e-02 -1.9909351e-01 0.0000000e+00 
-1.4092031e-02 -1.9966677e-01 0.0000000e+00 
-9.3414943e-03 -2.0025658e-01 0.0000000e+00 
-2.4473205e-02 -2.0489543e-01 0.0000000e+00 
-1.9652362e-02 -2.0546791e-01 0.0000000e+00 
-1.4836101e-02 -2.0605651e-01 0.0000000e+00 
-1.0023314e-02 -2.0666143e-01 0.0000000e+00 
-2.5360899e-02 -2.1133670e-01 0.0000000e+00 
-2.0478686e-02 -2.1192475e-01 0.0000000e+00 
-1.5601061e-02 -2.1252867e-01 0.0000000e+00 
-1.0726898e-02 -2.1314869e-01 0.0000000e+00 
-2.6267692e-02 -2.1785926e-01 0.0000000e+00 
-2.1325002e-02 -2.1846285e-01 0.0000000e+00 
-1.6386901e-02 -2.1908208e-01 0.0000000e+00 
-1.1452247e-02 -2.1971718e-01 0.0000000e+00 
-2.7193531e-02 -2.2446193e-01 0.0000000e+00 
-2.2191268e-02 -2.2508104e-01 0.0000000e+00 
-1.7193593e-02 -2.2571555e-01 0.0000000e+00 
-1.2199345e-02 -2.2636568e-01 0.0000000e+00 
-2.8138348e-02 -2.3114351e-01 0.0000000e+00 
-2.3077428e-02 -2.3177810e-01 0.0000000e+00 
-1.8021091e-02 -2.3242784e-01 0.0000000e+00 
-1.2968163e-02 -2.3309298e-01 0.0000000e+00 
-2.9102060e-02 -2.3790280e-01 0.0000000e+00 
-2.3983411e-02 -2.3855282e-01 0.0000000e+00 
-1.8869337e-02 -2.3921774e-01 0.0000000e+00 
-1.3758647e-02 -2.3989781e-01 0.0000000e+00 
-3.0084571e-02 -2.4473858e-01 0.0000000e+00 
-2.4909130e-02 -2.4540396e-01 0.0000000e+00 
-1.9738254e-02 -2.4608399e-01 0.0000000e+00 
-1.4570737e-02 -2.4677893e-01 0.0000000e+00 
-3.1085766e-02 -2.5164960e-01 0.0000000e+00 
-2.5854485e-02 -2.5233027e-01 0.0000000e+00 
-2.0627755e-02 -2.5302534e-01 0.0000000e+00 
-1.5404353e-02 -2.5373507e-01 0.0000000e+00 
-3.2105519e-02 -2.5863462e-01 0.0000000e+00 
-2.6819358e-02 -2.5933049e-01 0.0000000e+00 
-2.1537732e-02 -2.6004050e-01 0.0000000e+00 
-1.6259400e-02 -2.6076493e-01 0.0000000e+00 
-3.3143685e-02 -2.6569236e-01 0.0000000e+00 
-2.7803619e-02 -2.6640334e-01 0.0000000e+00 
-2.2468066e-02 -2.6712819e-01 0.0000000e+00 
-1.7135772e-02 -2.6786721e-01 0.0000000e+00 
-3.4200105e-02 -2.7282154e-01 0.0000000e+00 
-2.8807118e-02 -2.7354752e-01 0.0000000e+00 
-2.3418620e-02 -2.7428710e-01 0.0000000e+00 
-1.8033343e-02 -2.7504060e-01 0.0000000e+00 
-3.5274608e-02 -2.8002086e-01 0.0000000e+00 
-2.9829694e-02 -2.8076171e-01 0.0000000e+00 
-2.4389243e-02 -2.8151591e-01 0.0000000e+00 
-1.8951971e-02 -2.8228376e-01 0.0000000e+00 
-3.6367009e-02 -2.8728901e-01 0.0000000e+00 
-3.0871171e-02 -2.8804460e-01 0.0000000e+00 
-2.5379766e-02 -2.8881327e-01 0.0000000e+00 
-1.9891497e-02 -2.8959534e-01 0.0000000e+00 
-3.7477106e-02 -2.9462466e-01 0.0000000e+00 
-3.1931357e-02 -2.9539486e-01 0.0000000e+00 
-2.6390008e-02 -2.9617786e-01 0.0000000e+00 
-2.0851749e-02 -2.9697400e-01 0.0000000e+00 
-3.8604688e-02 -3.0202648e-01 0.0000000e+00 
-3.3010048e-02 -3.0281112e-01 0.0000000e+00 
-2.7419772e-02 -3.0360830e-01 0.0000000e+00 
-2.1832539e-02 -3.0441835e-01 0.0000000e+00 
-3.9749527e-02 -3.0949312e-01 0.0000000e+00 
-3.4107026e-02 -3.1029205e-01 0.0000000e+00 
-2.8468847e-02 -3.1110323e-01 0.0000000e+00 
-2.2833661e-02 -3.1192702e-01 0.0000000e+00 
-4.0911386e-02 -3.1702322e-01 0.0000000e+00 
-3.5222057e-02 -3.1783626e-01 0.0000000e+00 
-2.9537007e-02 -3.1866127e-01 0.0000000e+00 
-2.3854899e-02 -3.1949863e-01 0.0000000e+00 
-4.2090015e-02 -3.2461542e-01 0.0000000e+00 
-3.6354898e-02 -3.2544238e-01 0.0000000e+00 
-3.0624015e-02 -3.2628104e-01 0.0000000e+00 
-2.4896019e-02 -3.2713178e-01 0.0000000e+00 
-4.3285152e-02 -3.3226834e-01 0.0000000e+00 
-3.7505293e-02 -3.3310903e-01 0.0000000e+00 
-3.1729618e-02 -3.3396114e-01 0.0000000e+00 
-2.5956775e-02 -3.3482506e-01 0.0000000e+00 
-4.4496524e-02 -3.3998060e-01 0.0000000e+00 
-3.8672972e-02 -3.4083482e-01 0.0000000e+00 
-3.2853552e-02 -3.4170018e-01 0.0000000e+00 
-2.7036907e-02 -3.4257708e-01 0.0000000e+00 
-4.5723847e-02 -3.4775082e-01 0.0000000e+00 
-3.9857655e-02 -3.4861835e-01 0.0000000e+00 
-3.3995541e-02 -3.4949675e-01 0.0000000e+00 
-2.8136142e-02 -3.5038640e-01 0.0000000e+00 
-4.6966828e-02 -3.5557760e-01 0.0000000e+00 
-4.1059052e-02 -3.5645822e-01 0.0000000e+00 
-3.5155295e-02 -3.5734944e-01 0.0000000e+00 
-2.9254195e-02 -3.5825164e-01 0.0000000e+00 
-4.8225165e-02 -3.6345955e-01 0.0000000e+00 
-4.2276860e-02 -3.6435304e-01 0.0000000e+00 
-3.6332516e-02 -3.6525684e-01 0.0000000e+00 
-3.0390764e-02 -3.6617135e-01 0.0000000e+00 
-4.9498548e-02 -3.7139527e-01 0.0000000e+00 
-4.3510771e-02 -3.7230139e-01 0.0000000e+00 
-3.7526893e-02 -3.7321754e-01 0.0000000e+00 
-3.1545544e-02 -3.7414413e-01 0.0000000e+00 
-5.0786655e-02 -3.7938338e-01 0.0000000e+00 
-4.4760463e-02 -3.8030188e-01 0.0000000e+00 
-3.8738106e-02 -3.8123014e-01 0.0000000e+00 
-3.2718213e-02 -3.8216856e-01 0.0000000e+00 
-5.2089156e-02 -3.8742246e-01 0.0000000e+00 
-4.6025607e-02 -3.8835310e-01 0.0000000e+00 
-3.9965826e-02 -3.8929321e-01 0.0000000e+00 
-3.3908440e-02 -3.9024322e-01 0.0000000e+00 
-5.3405712e-02 -3.9551112e-01 0.0000000e+00 
-4.7305863e-02 -3.9645364e-01 0.0000000e+00 
-4.1209714e-02 -3.9740535e-01 0.0000000e+00 
-3.5115893e-02 -3.9836668e-01 0.0000000e+00 
-5.4735978e-02 -4.0364797e-01 0.0000000e+00 
-4.8600886e-02 -4.0460210e-01 0.0000000e+00 
-4.2469424e-02 -4.0556515e-01 0.0000000e+00 
-3.6340220e-02 -4.0653754e-01 0.0000000e+00 
-5.6079602e-02 -4.1183159e-01 0.0000000e+00 
-4.9910322e-02 -4.1279707e-01 0.0000000e+00 
-4.3744598e-02 -4.1377119e-01 0.0000000e+00 
-3.7581063e-02 -4.1475438e-01 0.0000000e+00 
-5.7436227e-02 -4.2006061e-01 0.0000000e+00 
-5.1233808e-02 -4.2103716e-01 0.0000000e+00 
-4.5034872e-02 -4.2202207e-01 0.0000000e+00 
-3.8838054e-02 -4.2301578e-01 0.0000000e+00 
-5.8805491e-02 -4.2833363e-01 0.0000000e+00 
-5.2570980e-02 -4.2932096e-01 0.0000000e+00 
-4.6339874e-02 -4.3031639e-01 0.0000000e+00 
-4.0110817e-02 -4.3132035e-01 0.0000000e+00 
-6.0187027e-02 -4.3664925e-01 0.0000000e+00 
-5.3921465e-02 -4.3764710e-01 0.0000000e+00 
-4.7659229e-02 -4.3865276e-01 0.0000000e+00 
-4.1398970e-02 -4.3966667e-01 0.0000000e+00 
-6.1580469e-02 -4.4500611e-01 0.0000000e+00 
-5.5284888e-02 -4.4601418e-01 0.0000000e+00 
-4.8992552e-02 -4.4702979e-01 0.0000000e+00 
-4.2702124e-02 -4.4805339e-01 0.0000000e+00 
-6.2985444e-02 -4.5340284e-01 0.0000000e+00 
-5.6660869e-02 -4.5442083e-01 0.0000000e+00 
-5.0339458e-02 -4.5544611e-01 0.0000000e+00 
-4.4019883e-02 -4.5647910e-01 0.0000000e+00 
-6.4401579e-02 -4.6183808e-01 0.0000000e+00 
-5.8049026e-02 -4.6286571e-01 0.0000000e+00 
-5.1699555e-02 -4.6390036e-01 0.0000000e+00 
-4.5351850e-02 -4.6494245e-01 0.0000000e+00 
-6.5828502e-02 -4.7031049e-01 0.0000000e+00 
-5.9448976e-02 -4.7134745e-01 0.0000000e+00 
-5.3072449e-02 -4.7239118e-01 0.0000000e+00 
-4.6697617e-02 -4.7344209e-01 0.0000000e+00 
-6.7265838e-02 -4.7881872e-01 0.0000000e+00 
-6.0860334e-02 -4.7986473e-01 0.0000000e+00 
-5.4457744e-02 -4.8091724e-01 0.0000000e+00 
-4.8056781e-02 -4.8197668e-01 0.0000000e+00 
-6.8713213e-02 -4.8736147e-01 0.0000000e+00 
-6.2282714e-02 -4.8841623e-01 0.0000000e+00 
-5.5855044e-02 -4.8947723e-01 0.0000000e+00 
-4.9428931e-02 -4.9054490e-01 0.0000000e+00 
-7.0170253e-02 -4.9593743e-01 0.0000000e+00 
-6.3715728e-02 -4.9700064e-01 0.0000000e+00 
-5.7263950e-02 -4.9806984e-01 0.0000000e+00 
-5.0813658e-02 -4.9914546e-01 0.0000000e+00 
-7.1636579e-02 -5.0454531e-01 0.0000000e+00 
-6.5158991e-02 -5.0561668e-01 0.0000000e+00 
-5.8684064e-02 -5.0669378e-01 0.0000000e+00 
-5.2210554e-02 -5.0777705e-01 0.0000000e+00 
-7.3111819e-02 -5.1318384e-01 0.0000000e+00 
-6.6612115e-02 -5.1426306e-01 0.0000000e+00 
-6.0114986e-02 -5.1534778e-01 0.0000000e+00 
-5.3619207e-02 -5.1643841e-01 0.0000000e+00 
-7.4595603e-02 -5.2185176e-01 0.0000000e+00 
-6.8074717e-02 -5.2293854e-01 0.0000000e+00 
-6.1556318e-02 -5.2403058e-01 0.0000000e+00 
-5.5039202e-02 -5.2512828e-01 0.0000000e+00 
-7.6087566e-02 -5.3054784e-01 0.0000000e+00 
-6.9546413e-02 -5.3164188e-01 0.0000000e+00 
-6.3007663e-02 -5.3274095e-01 0.0000000e+00 
-5.6470129e-02 -5.3384544e-01 0.0000000e+00 
-7.7587342e-02 -5.3927085e-01 0.0000000e+00 
-7.1026826e-02 -5.4037186e-01 0.0000000e+00 
-6.4468625e-02 -5.4147767e-01 0.0000000e+00 
-5.7911576e-02 -5.4258866e-01 0.0000000e+00 
-7.9094576e-02 -5.4801960e-01 0.0000000e+00 
-7.2515580e-02 -5.4912729e-01 0.0000000e+00 
-6.5938813e-02 -5.5023955e-01 0.0000000e+00 
-5.9363135e-02 -5.5135677e-01 0.0000000e+00 
-8.0608914e-02 -5.5679291e-01 0.0000000e+00 
-7.4012304e-02 -5.5790700e-01 0.0000000e+00 
-6.7417839e-02 -5.5902543e-01 0.0000000e+00 
-6.0824401e-02 -5.6014859e-01 0.0000000e+00 
-8.2130007e-02 -5.6558963e-01 0.0000000e+00 
-7.5516633e-02 -5.6670983e-01 0.0000000e+00 
-6.8905318e-02 -5.6783416e-01 0.0000000e+00 
-6.2294970e-02 -5.6896298e-01 0.0000000e+00 
-8.3657517e-02 -5.7440864e-01 0.0000000e+00 
-7.7028206e-02 -5.7553467e-01 0.0000000e+00 
-7.0400871e-02 -5.7666462e-01 0.0000000e+00 
-6.3774444e-02 -5.7779885e-01 0.0000000e+00 
-8.5191109e-02 -5.8324884e-01 0.0000000e+00 
-7.8546671e-02 -5.8438042e-01 0.0000000e+00 
-7.1904125e-02 -5.8551572e-01 0.0000000e+00 
-6.5262430e-02 -5.8665508e-01 0.0000000e+00 
-8.6730457e-02 -5.9210915e-01 0.0000000e+00 
-8.0071681e-02 -5.9324601e-01 0.0000000e+00 
-7.3414712e-02 -5.9438639e-01 0.0000000e+00 
-6.6758541e-02 -5.9553063e-01 0.0000000e+00 