# vtk DataFile Version 4.0
vtk output
ASCII
DATASET UNSTRUCTURED_GRID
POINTS 604 float
5.5000000e+00 5.9700000e+00 0.0000000e+00 
5.5000000e+00 5.9900000e+00 0.0000000e+00 
5.5266667e+00 5.9700000e+00 0.0000000e+00 
5.5266667e+00 5.9900000e+00 0.0000000e+00 
5.5000000e+00 6.0100000e+00 0.0000000e+00 
5.5266667e+00 6.0100000e+00 0.0000000e+00 
5.5533333e+00 5.9700000e+00 0.0000000e+00 
5.5533333e+00 5.9900000e+00 0.0000000e+00 
5.5000000e+00 6.0300000e+00 0.0000000e+00 
5.5266667e+00 6.0300000e+00 0.0000000e+00 
5.5533333e+00 6.0100000e+00 0.0000000e+00 
5.5800000e+00 5.9700000e+00 0.0000000e+00 
5.5533333e+00 6.0300000e+00 0.0000000e+00 
5.5800000e+00 5.9900000e+00 0.0000000e+00 
5.5800000e+00 6.0100000e+00 0.0000000e+00 
5.5800000e+00 6.0300000e+00 0.0000000e+00 
5.6066667e+00 5.9700000e+00 0.0000000e+00 
5.6066667e+00 5.9900000e+00 0.0000000e+00 
5.6066667e+00 6.0100000e+00 0.0000000e+00 
5.6066667e+00 6.0300000e+00 0.0000000e+00 
5.6333333e+00 5.9700000e+00 0.0000000e+00 
5.6333333e+00 5.9900000e+00 0.0000000e+00 
5.6333333e+00 6.0100000e+00 0.0000000e+00 
5.6333333e+00 6.0300000e+00 0.0000000e+00 
5.6600000e+00 5.9700000e+00 0.0000000e+00 
5.6600000e+00 5.9900000e+00 0.0000000e+00 
5.6600000e+00 6.0100000e+00 0.0000000e+00 
5.6600000e+00 6.0300000e+00 0.0000000e+00 
5.6866667e+00 5.9700000e+00 0.0000000e+00 
5.6866667e+00 5.9900000e+00 0.0000000e+00 
5.6866667e+00 6.0100000e+00 0.0000000e+00 
5.6866667e+00 6.0300000e+00 0.0000000e+00 
5.7133333e+00 5.9700000e+00 0.0000000e+00 
5.7133333e+00 5.9900000e+00 0.0000000e+00 
5.7133333e+00 6.0100000e+00 0.0000000e+00 
5.7133333e+00 6.0300000e+00 0.0000000e+00 
5.7400000e+00 5.9700000e+00 0.0000000e+00 
5.7400000e+00 5.9900000e+00 0.0000000e+00 
5.7400000e+00 6.0100000e+00 0.0000000e+00 
5.7400000e+00 6.0300000e+00 0.0000000e+00 
5.7666667e+00 5.9700000e+00 0.0000000e+00 
5.7666667e+00 5.9900000e+00 0.0000000e+00 
5.7666667e+00 6.0100000e+00 0.0000000e+00 
5.7666667e+00 6.0300000e+00 0.0000000e+00 
5.7933333e+00 5.9700000e+00 0.0000000e+00 
5.7933333e+00 5.9900000e+00 0.0000000e+00 
5.7933333e+00 6.0100000e+00 0.0000000e+00 
5.7933333e+00 6.0300000e+00 0.0000000e+00 
5.8200000e+00 5.9700000e+00 0.0000000e+00 
5.8200000e+00 5.9900000e+00 0.0000000e+00 
5.8200000e+00 6.0100000e+00 0.0000000e+00 
5.8200000e+00 6.0300000e+00 0.0000000e+00 
5.8466667e+00 5.9700000e+00 0.0000000e+00 
5.8466667e+00 5.9900000e+00 0.0000000e+00 
5.8466667e+00 6.0100000e+00 0.0000000e+00 
5.8466667e+00 6.0300000e+00 0.0000000e+00 
5.8733333e+00 5.9700000e+00 0.0000000e+00 
5.8733333e+00 5.9900000e+00 0.0000000e+00 
5.8733333e+00 6.0100000e+00 0.0000000e+00 
5.8733333e+00 6.0300000e+00 0.0000000e+00 
5.9000000e+00 5.9700000e+00 0.0000000e+00 
5.9000000e+00 5.9900000e+00 0.0000000e+00 
5.9000000e+00 6.0100000e+00 0.0000000e+00 
5.9000000e+00 6.0300000e+00 0.0000000e+00 
5.9266667e+00 5.9700000e+00 0.0000000e+00 
5.9266667e+00 5.9900000e+00 0.0000000e+00 
5.9266667e+00 6.0100000e+00 0.0000000e+00 
5.9266667e+00 6.0300000e+00 0.0000000e+00 
5.9533333e+00 5.9700000e+00 0.0000000e+00 
5.9533333e+00 5.9900000e+00 0.0000000e+00 
5.9533333e+00 6.0100000e+00 0.0000000e+00 
5.9533333e+00 6.0300000e+00 0.0000000e+00 
5.9800000e+00 5.9700000e+00 0.0000000e+00 
5.9800000e+00 5.9900000e+00 0.0000000e+00 
5.9800000e+00 6.0100000e+00 0.0000000e+00 
5.9800000e+00 6.0300000e+00 0.0000000e+00 
6.0066667e+00 5.9700000e+00 0.0000000e+00 
6.0066667e+00 5.9900000e+00 0.0000000e+00 
6.0066667e+00 6.0100000e+00 0.0000000e+00 
6.0066667e+00 6.0300000e+00 0.0000000e+00 
6.0333333e+00 5.9700000e+00 0.0000000e+00 
6.0333333e+00 5.9900000e+00 0.0000000e+00 
6.0333333e+00 6.0100000e+00 0.0000000e+00 
6.0333333e+00 6.0300000e+00 0.0000000e+00 
6.0600000e+00 5.9700000e+00 0.0000000e+00 
6.0600000e+00 5.9900000e+00 0.0000000e+00 
6.0600000e+00 6.0100000e+00 0.0000000e+00 
6.0600000e+00 6.0300000e+00 0.0000000e+00 
6.0866667e+00 5.9700000e+00 0.0000000e+00 
6.0866667e+00 5.9900000e+00 0.0000000e+00 
6.0866667e+00 6.0100000e+00 0.0000000e+00 
6.0866667e+00 6.0300000e+00 0.0000000e+00 
6.1133333e+00 5.9700000e+00 0.0000000e+00 
6.1133333e+00 5.9900000e+00 0.0000000e+00 
6.1133333e+00 6.0100000e+00 0.0000000e+00 
6.1133333e+00 6.0300000e+00 0.0000000e+00 
6.1400000e+00 5.9700000e+00 0.0000000e+00 
6.1400000e+00 5.9900000e+00 0.0000000e+00 
6.1400000e+00 6.0100000e+00 0.0000000e+00 
6.1400000e+00 6.0300000e+00 0.0000000e+00 
6.1666667e+00 5.9700000e+00 0.0000000e+00 
6.1666667e+00 5.9900000e+00 0.0000000e+00 
6.1666667e+00 6.0100000e+00 0.0000000e+00 
6.1666667e+00 6.0300000e+00 0.0000000e+00 
6.1933333e+00 5.9700000e+00 0.0000000e+00 
6.1933333e+00 5.9900000e+00 0.0000000e+00 
6.1933333e+00 6.0100000e+00 0.0000000e+00 
6.1933333e+00 6.0300000e+00 0.0000000e+00 
6.2200000e+00 5.9700000e+00 0.0000000e+00 
6.2200000e+00 5.9900000e+00 0.0000000e+00 
6.2200000e+00 6.0100000e+00 0.0000000e+00 
6.2200000e+00 6.0300000e+00 0.0000000e+00 
6.2466667e+00 5.9700000e+00 0.0000000e+00 
6.2466667e+00 5.9900000e+00 0.0000000e+00 
6.2466667e+00 6.0100000e+00 0.0000000e+00 
6.2466667e+00 6.0300000e+00 0.0000000e+00 
6.2733333e+00 5.9700000e+00 0.0000000e+00 
6.2733333e+00 5.9900000e+00 0.0000000e+00 
6.2733333e+00 6.0100000e+00 0.0000000e+00 
6.2733333e+00 6.0300000e+00 0.0000000e+00 
6.3000000e+00 5.9700000e+00 0.0000000e+00 
6.3000000e+00 5.9900000e+00 0.0000000e+00 
6.3000000e+00 6.0100000e+00 0.0000000e+00 
6.3000000e+00 6.0300000e+00 0.0000000e+00 
6.3266667e+00 5.9700000e+00 0.0000000e+00 
6.3266667e+00 5.9900000e+00 0.0000000e+00 
6.3266667e+00 6.0100000e+00 0.0000000e+00 
6.3266667e+00 6.0300000e+00 0.0000000e+00 
6.3533333e+00 5.9700000e+00 0.0000000e+00 
6.3533333e+00 5.9900000e+00 0.0000000e+00 
6.3533333e+00 6.0100000e+00 0.0000000e+00 
6.3533333e+00 6.0300000e+00 0.0000000e+00 
6.3800000e+00 5.9700000e+00 0.0000000e+00 
6.3800000e+00 5.9900000e+00 0.0000000e+00 
6.3800000e+00 6.0100000e+00 0.0000000e+00 
6.3800000e+00 6.0300000e+00 0.0000000e+00 
6.4066667e+00 5.9700000e+00 0.0000000e+00 
6.4066667e+00 5.9900000e+00 0.0000000e+00 
6.4066667e+00 6.0100000e+00 0.0000000e+00 
6.4066667e+00 6.0300000e+00 0.0000000e+00 
6.4333333e+00 5.9700000e+00 0.0000000e+00 
6.4333333e+00 5.9900000e+00 0.0000000e+00 
6.4333333e+00 6.0100000e+00 0.0000000e+00 
6.4333333e+00 6.0300000e+00 0.0000000e+00 
6.4600000e+00 5.9700000e+00 0.0000000e+00 
6.4600000e+00 5.9900000e+00 0.0000000e+00 
6.4600000e+00 6.0100000e+00 0.0000000e+00 
6.4600000e+00 6.0300000e+00 0.0000000e+00 
6.4866667e+00 5.9700000e+00 0.0000000e+00 
6.4866667e+00 5.9900000e+00 0.0000000e+00 
6.4866667e+00 6.0100000e+00 0.0000000e+00 
6.4866667e+00 6.0300000e+00 0.0000000e+00 
6.5133333e+00 5.9700000e+00 0.0000000e+00 
6.5133333e+00 5.9900000e+00 0.0000000e+00 
6.5133333e+00 6.0100000e+00 0.0000000e+00 
6.5133333e+00 6.0300000e+00 0.0000000e+00 
6.5400000e+00 5.9700000e+00 0.0000000e+00 
6.5400000e+00 5.9900000e+00 0.0000000e+00 
6.5400000e+00 6.0100000e+00 0.0000000e+00 
6.5400000e+00 6.0300000e+00 0.0000000e+00 
6.5666667e+00 5.9700000e+00 0.0000000e+00 
6.5666667e+00 5.9900000e+00 0.0000000e+00 
6.5666667e+00 6.0100000e+00 0.0000000e+00 
6.5666667e+00 6.0300000e+00 0.0000000e+00 
6.5933333e+00 5.9700000e+00 0.0000000e+00 
6.5933333e+00 5.9900000e+00 0.0000000e+00 
6.5933333e+00 6.0100000e+00 0.0000000e+00 
6.5933333e+00 6.0300000e+00 0.0000000e+00 
6.6200000e+00 5.9700000e+00 0.0000000e+00 
6.6200000e+00 5.9900000e+00 0.0000000e+00 
6.6200000e+00 6.0100000e+00 0.0000000e+00 
6.6200000e+00 6.0300000e+00 0.0000000e+00 
6.6466667e+00 5.9700000e+00 0.0000000e+00 
6.6466667e+00 5.9900000e+00 0.0000000e+00 
6.6466667e+00 6.0100000e+00 0.0000000e+00 
6.6466667e+00 6.0300000e+00 0.0000000e+00 
6.6733333e+00 5.9700000e+00 0.0000000e+00 
6.6733333e+00 5.9900000e+00 0.0000000e+00 
6.6733333e+00 6.0100000e+00 0.0000000e+00 
6.6733333e+00 6.0300000e+00 0.0000000e+00 
6.7000000e+00 5.9700000e+00 0.0000000e+00 
6.7000000e+00 5.9900000e+00 0.0000000e+00 
6.7000000e+00 6.0100000e+00 0.0000000e+00 
6.7000000e+00 6.0300000e+00 0.0000000e+00 
6.7266667e+00 5.9700000e+00 0.0000000e+00 
6.7266667e+00 5.9900000e+00 0.0000000e+00 
6.7266667e+00 6.0100000e+00 0.0000000e+00 
6.7266667e+00 6.0300000e+00 0.0000000e+00 
6.7533333e+00 5.9700000e+00 0.0000000e+00 
6.7533333e+00 5.9900000e+00 0.0000000e+00 
6.7533333e+00 6.0100000e+00 0.0000000e+00 
6.7533333e+00 6.0300000e+00 0.0000000e+00 
6.7800000e+00 5.9700000e+00 0.0000000e+00 
6.7800000e+00 5.9900000e+00 0.0000000e+00 
6.7800000e+00 6.0100000e+00 0.0000000e+00 
6.7800000e+00 6.0300000e+00 0.0000000e+00 
6.8066667e+00 5.9700000e+00 0.0000000e+00 
6.8066667e+00 5.9900000e+00 0.0000000e+00 
6.8066667e+00 6.0100000e+00 0.0000000e+00 
6.8066667e+00 6.0300000e+00 0.0000000e+00 
6.8333333e+00 5.9700000e+00 0.0000000e+00 
6.8333333e+00 5.9900000e+00 0.0000000e+00 
6.8333333e+00 6.0100000e+00 0.0000000e+00 
6.8333333e+00 6.0300000e+00 0.0000000e+00 
6.8600000e+00 5.9700000e+00 0.0000000e+00 
6.8600000e+00 5.9900000e+00 0.0000000e+00 
6.8600000e+00 6.0100000e+00 0.0000000e+00 
6.8600000e+00 6.0300000e+00 0.0000000e+00 
6.8866667e+00 5.9700000e+00 0.0000000e+00 
6.8866667e+00 5.9900000e+00 0.0000000e+00 
6.8866667e+00 6.0100000e+00 0.0000000e+00 
6.8866667e+00 6.0300000e+00 0.0000000e+00 
6.9133333e+00 5.9700000e+00 0.0000000e+00 
6.9133333e+00 5.9900000e+00 0.0000000e+00 
6.9133333e+00 6.0100000e+00 0.0000000e+00 
6.9133333e+00 6.0300000e+00 0.0000000e+00 
6.9400000e+00 5.9700000e+00 0.0000000e+00 
6.9400000e+00 5.9900000e+00 0.0000000e+00 
6.9400000e+00 6.0100000e+00 0.0000000e+00 
6.9400000e+00 6.0300000e+00 0.0000000e+00 
6.9666667e+00 5.9700000e+00 0.0000000e+00 
6.9666667e+00 5.9900000e+00 0.0000000e+00 
6.9666667e+00 6.0100000e+00 0.0000000e+00 
6.9666667e+00 6.0300000e+00 0.0000000e+00 
6.9933333e+00 5.9700000e+00 0.0000000e+00 
6.9933333e+00 5.9900000e+00 0.0000000e+00 
6.9933333e+00 6.0100000e+00 0.0000000e+00 
6.9933333e+00 6.0300000e+00 0.0000000e+00 
7.0200000e+00 5.9700000e+00 0.0000000e+00 
7.0200000e+00 5.9900000e+00 0.0000000e+00 
[...]
POINT_DATA 604
FIELD FieldData 2
DISPLACEMENT 3 604  float
0.0000000e+00 0.0000000e+00 0.0000000e+00 
0.0000000e+00 0.0000000e+00 0.0000000e+00 
-3.2254987e-09 3.7409265e-08 0.0000000e+00 
-5.2363754e-08 6.6085236e-08 0.0000000e+00 
0.0000000e+00 0.0000000e+00 0.0000000e+00 
-8.9436449e-08 1.0132191e-07 0.0000000e+00 
-4.8016585e-08 1.6619097e-07 0.0000000e+00 
-1.2792361e-07 2.0338896e-07 0.0000000e+00 
0.0000000e+00 0.0000000e+00 0.0000000e+00 
-1.6370937e-07 1.5457064e-07 0.0000000e+00 
-1.8976264e-07 2.4538601e-07 0.0000000e+00 
-1.4427095e-07 3.0676046e-07 0.0000000e+00 
-2.7332708e-07 2.8575072e-07 0.0000000e+00 
-2.1768176e-07 3.5221720e-07 0.0000000e+00 
-2.7036407e-07 3.9128500e-07 0.0000000e+00 
-3.4258995e-07 4.2436188e-07 0.0000000e+00 
-2.8787385e-07 4.1363513e-07 0.0000000e+00 
-3.2141170e-07 4.6667224e-07 0.0000000e+00 
-3.3490944e-07 5.0561270e-07 0.0000000e+00 
-3.6792921e-07 5.3038563e-07 0.0000000e+00 
-4.7617672e-07 4.4678960e-07 0.0000000e+00 
-4.4029363e-07 5.0772151e-07 0.0000000e+00 
-3.8464638e-07 5.4671360e-07 0.0000000e+00 
-3.4817441e-07 5.6380232e-07 0.0000000e+00 
-7.0895317e-07 3.6717151e-07 0.0000000e+00 
-5.7413706e-07 4.3582615e-07 0.0000000e+00 
-4.1988138e-07 4.7494664e-07 0.0000000e+00 
-2.8452403e-07 4.8440626e-07 0.0000000e+00 
-9.8534699e-07 1.3553857e-07 0.0000000e+00 
-7.2284844e-07 2.1200652e-07 0.0000000e+00 
-4.4099590e-07 2.5133494e-07 0.0000000e+00 
-1.7750251e-07 2.5354351e-07 0.0000000e+00 
-1.3051565e-06 -2.8603338e-07 0.0000000e+00 
-8.8620842e-07 -2.0206851e-07 0.0000000e+00 
-4.4824640e-07 -1.6257613e-07 0.0000000e+00 
-2.8324775e-08 -1.6772480e-07 0.0000000e+00 
-1.6673883e-06 -9.3596326e-07 0.0000000e+00 
-1.0641661e-06 -8.4423512e-07 0.0000000e+00 
-4.4207428e-07 -8.0438228e-07 0.0000000e+00 
1.6251736e-07 -8.1632611e-07 0.0000000e+00 
-2.0717059e-06 -1.8503570e-06 0.0000000e+00 
-1.2564989e-06 -1.7513795e-06 0.0000000e+00 
-4.2276529e-07 -1.7112982e-06 0.0000000e+00 
3.9380387e-07 -1.7303089e-06 0.0000000e+00 
-2.5171392e-06 -3.0666370e-06 0.0000000e+00 
-1.4630947e-06 -2.9600342e-06 0.0000000e+00 
-3.9073745e-07 -2.9194897e-06 0.0000000e+00 
6.6496148e-07 -2.9448750e-06 0.0000000e+00 
-3.0031947e-06 -4.6192389e-06 0.0000000e+00 
-1.6837170e-06 -4.5056534e-06 0.0000000e+00 
-3.4628588e-07 -4.4648380e-06 0.0000000e+00 
9.7484823e-07 -4.4969960e-06 0.0000000e+00 
-3.5289190e-06 -6.5443684e-06 0.0000000e+00 
-1.9181989e-06 -6.4233728e-06 0.0000000e+00 
-2.8978378e-07 -6.3820402e-06 0.0000000e+00 
1.3227751e-06 -6.4202121e-06 0.0000000e+00 
-4.0937349e-06 -8.8748661e-06 0.0000000e+00 
-2.1662703e-06 -8.7471700e-06 0.0000000e+00 
-2.2152378e-07 -8.7055871e-06 0.0000000e+00 
1.7077365e-06 -8.7502319e-06 0.0000000e+00 
-4.6967576e-06 -1.1645611e-05 0.0000000e+00 
-2.4276838e-06 -1.1510806e-05 0.0000000e+00 
-1.4180851e-07 -1.1468623e-05 0.0000000e+00 
2.1288621e-06 -1.1519026e-05 0.0000000e+00 
-5.3370876e-06 -1.4888430e-05 0.0000000e+00 
-2.7023513e-06 -1.4746750e-05 0.0000000e+00 
-5.1134565e-08 -1.4704003e-05 0.0000000e+00 
2.5853181e-06 -1.4760087e-05 0.0000000e+00 
-6.0138327e-06 -1.8634647e-05 0.0000000e+00 
-2.9897722e-06 -1.8486746e-05 0.0000000e+00 
5.0418337e-08 -1.8443792e-05 0.0000000e+00 
3.0762657e-06 -1.8505910e-05 0.0000000e+00 
-6.7261596e-06 -2.2916587e-05 0.0000000e+00 
-3.2896275e-06 -2.2762185e-05 0.0000000e+00 
1.6258778e-07 -2.2718849e-05 0.0000000e+00 
3.6007901e-06 -2.2786414e-05 0.0000000e+00 
-7.4730618e-06 -2.7763508e-05 0.0000000e+00 
-3.6016461e-06 -2.7603230e-05 0.0000000e+00 
2.8506093e-07 -2.7559706e-05 0.0000000e+00 
4.1581337e-06 -2.7633037e-05 0.0000000e+00 
-8.2537570e-06 -3.3206010e-05 0.0000000e+00 
-3.9255037e-06 -3.3039610e-05 0.0000000e+00 
4.1758096e-07 -3.2995760e-05 0.0000000e+00 
4.7473249e-06 -3.3074299e-05 0.0000000e+00 
-9.0672387e-06 -3.9271895e-05 0.0000000e+00 
-4.2609154e-06 -3.9099965e-05 0.0000000e+00 
5.5984776e-07 -3.9055982e-05 0.0000000e+00 
5.3676623e-06 -3.9140024e-05 0.0000000e+00 
-9.9127465e-06 -4.5990091e-05 0.0000000e+00 
-4.6075296e-06 -4.5812462e-05 0.0000000e+00 
7.1162498e-07 -4.5768250e-05 0.0000000e+00 
6.0181343e-06 -4.5857312e-05 0.0000000e+00 
-1.0789181e-05 -5.3386992e-05 0.0000000e+00 
-4.9650632e-06 -5.3204192e-05 0.0000000e+00 
8.7260430e-07 -5.3159906e-05 0.0000000e+00 
6.6980097e-06 -5.3254205e-05 0.0000000e+00 
-1.1695775e-05 -6.1489755e-05 0.0000000e+00 
-5.3331685e-06 -6.1301689e-05 0.0000000e+00 
1.0425219e-06 -6.1257267e-05 0.0000000e+00 
7.4062922e-06 -6.1356364e-05 0.0000000e+00 
-1.2631520e-05 -7.0323381e-05 0.0000000e+00 
-5.7115582e-06 -7.0130514e-05 0.0000000e+00 
1.2210629e-06 -7.0086084e-05 0.0000000e+00 
8.1421555e-06 -7.0190153e-05 0.0000000e+00 
-1.3595587e-05 -7.9913360e-05 0.0000000e+00 
-6.0999278e-06 -7.9715584e-05 0.0000000e+00 
1.4079278e-06 -7.9671061e-05 0.0000000e+00 
8.9045884e-06 -7.9779665e-05 0.0000000e+00 
-1.4586988e-05 -9.0282981e-05 0.0000000e+00 
-6.4979881e-06 -9.0080786e-05 0.0000000e+00 
1.6027895e-06 -9.0036311e-05 0.0000000e+00 
9.6927712e-06 -9.0149621e-05 0.0000000e+00 
-1.5604892e-05 -1.0145612e-04 0.0000000e+00 
-6.9054223e-06 -1.0124941e-04 0.0000000e+00 
1.8053410e-06 -1.0120491e-04 0.0000000e+00 
1.0505689e-05 -1.0132250e-04 0.0000000e+00 
-1.6648270e-05 -1.1345441e-04 0.0000000e+00 
-7.3219377e-06 -1.1324366e-04 0.0000000e+00 
2.0152588e-06 -1.1319930e-04 0.0000000e+00 
1.1342403e-05 -1.1332133e-04 0.0000000e+00 
-1.7716314e-05 -1.2630005e-04 0.0000000e+00 
-7.7472156e-06 -1.2608521e-04 0.0000000e+00 
2.2322153e-06 -1.2604081e-04 0.0000000e+00 
1.2201891e-05 -1.2616684e-04 0.0000000e+00 
-1.8808011e-05 -1.4001350e-04 0.0000000e+00 
-8.1810969e-06 -1.3979469e-04 0.0000000e+00 
2.4557400e-06 -1.3975027e-04 0.0000000e+00 
1.3083294e-05 -1.3988014e-04 0.0000000e+00 
-1.9922470e-05 -1.5461404e-04 0.0000000e+00 
-8.6231706e-06 -1.5439181e-04 0.0000000e+00 
2.6856167e-06 -1.5434760e-04 0.0000000e+00 
1.3985532e-05 -1.5448151e-04 0.0000000e+00 
-2.1058756e-05 -1.7012156e-04 0.0000000e+00 
-9.0731623e-06 -1.6989570e-04 0.0000000e+00 
2.9214529e-06 -1.6985154e-04 0.0000000e+00 
1.4907592e-05 -1.6998891e-04 0.0000000e+00 
-2.2215898e-05 -1.8655316e-04 0.0000000e+00 
-9.5307741e-06 -1.8632431e-04 0.0000000e+00 
3.1628787e-06 -1.8628039e-04 0.0000000e+00 
1.5848486e-05 -1.8642153e-04 0.0000000e+00 
-2.3392942e-05 -2.0392720e-04 0.0000000e+00 
-9.9957523e-06 -2.0369500e-04 0.0000000e+00 
3.4095250e-06 -2.0365115e-04 0.0000000e+00 
1.6807131e-05 -2.0379543e-04 0.0000000e+00 
-2.4588987e-05 -2.2225856e-04 0.0000000e+00 
-1.0467803e-05 -2.2202380e-04 0.0000000e+00 
3.6610396e-06 -2.2198024e-04 0.0000000e+00 
1.7782576e-05 -2.2212805e-04 0.0000000e+00 
-2.5803195e-05 -2.4156418e-04 0.0000000e+00 
-1.0946657e-05 -2.4132642e-04 0.0000000e+00 
3.9170447e-06 -2.4128295e-04 0.0000000e+00 
1.8773836e-05 -2.4143355e-04 0.0000000e+00 
-2.7034548e-05 -2.6185715e-04 0.0000000e+00 
-1.1432042e-05 -2.6161723e-04 0.0000000e+00 
4.1772170e-06 -2.6157413e-04 0.0000000e+00 
1.9779901e-05 -2.6172803e-04 0.0000000e+00 
-2.8282291e-05 -2.8315285e-04 0.0000000e+00 
-1.1923649e-05 -2.8291033e-04 0.0000000e+00 
4.4411931e-06 -2.8286735e-04 0.0000000e+00 
2.0799771e-05 -2.8302366e-04 0.0000000e+00 
-2.9545283e-05 -3.0546278e-04 0.0000000e+00 
-1.2421185e-05 -3.0521853e-04 0.0000000e+00 
4.7086287e-06 -3.0517601e-04 0.0000000e+00 
2.1832621e-05 -3.0533537e-04 0.0000000e+00 
-3.0822680e-05 -3.2880067e-04 0.0000000e+00 
-1.2924301e-05 -3.2855422e-04 0.0000000e+00 
4.9792235e-06 -3.2851194e-04 0.0000000e+00 
2.2877257e-05 -3.2867351e-04 0.0000000e+00 
-3.2113302e-05 -3.5317602e-04 0.0000000e+00 
-1.3432671e-05 -3.5292833e-04 0.0000000e+00 
5.2526088e-06 -3.5288658e-04 0.0000000e+00 
2.3932806e-05 -3.5305095e-04 0.0000000e+00 
-3.3416290e-05 -3.7860091e-04 0.0000000e+00 
-1.3945966e-05 -3.7835140e-04 0.0000000e+00 
5.5284373e-06 -3.7830992e-04 0.0000000e+00 
2.4998083e-05 -3.7847618e-04 0.0000000e+00 
-3.4730478e-05 -4.0508273e-04 0.0000000e+00 
-1.4463851e-05 -4.0483243e-04 0.0000000e+00 
5.8063735e-06 -4.0479165e-04 0.0000000e+00 
2.6072223e-05 -4.0496045e-04 0.0000000e+00 
-3.6055183e-05 -4.3263183e-04 0.0000000e+00 
-1.4985878e-05 -4.3238029e-04 0.0000000e+00 
6.0861788e-06 -4.3233985e-04 0.0000000e+00 
2.7153931e-05 -4.3251037e-04 0.0000000e+00 
-3.7388965e-05 -4.6125505e-04 0.0000000e+00 
-1.5512016e-05 -4.6100241e-04 0.0000000e+00 
6.3672575e-06 -4.6096225e-04 0.0000000e+00 
2.8242600e-05 -4.6113438e-04 0.0000000e+00 
-3.8730933e-05 -4.9095785e-04 0.0000000e+00 
-1.6041631e-05 -4.9070510e-04 0.0000000e+00 
6.6496139e-06 -4.9066582e-04 0.0000000e+00 
2.9337323e-05 -4.9084018e-04 0.0000000e+00 
-4.0080395e-05 -5.2174815e-04 0.0000000e+00 
-1.6574346e-05 -5.2149474e-04 0.0000000e+00 
6.9329820e-06 -5.2145603e-04 0.0000000e+00 
3.0436968e-05 -5.2163169e-04 0.0000000e+00 
-4.1435922e-05 -5.5362915e-04 0.0000000e+00 
-1.7109879e-05 -5.5337610e-04 0.0000000e+00 
7.2170204e-06 -5.5333836e-04 0.0000000e+00 
3.1541011e-05 -5.5351605e-04 0.0000000e+00 
-4.2796916e-05 -5.8660676e-04 0.0000000e+00 
-1.7647739e-05 -5.8635367e-04 0.0000000e+00 
7.5016067e-06 -5.8631677e-04 0.0000000e+00 
3.2648138e-05 -5.8649578e-04 0.0000000e+00 
-4.4161935e-05 -6.2068293e-04 0.0000000e+00 
-1.8187627e-05 -6.2043063e-04 0.0000000e+00 
7.7864194e-06 -6.2039485e-04 0.0000000e+00 
3.3758024e-05 -6.2057568e-04 0.0000000e+00 
-4.5530370e-05 -6.5586159e-04 0.0000000e+00 
-1.8729100e-05 -6.5560979e-04 0.0000000e+00 
8.0712609e-06 -6.5557500e-04 0.0000000e+00 
3.4869420e-05 -6.5575698e-04 0.0000000e+00 
-4.6900883e-05 -6.9214331e-04 0.0000000e+00 
-1.9271841e-05 -6.9189276e-04 0.0000000e+00 
8.3558158e-06 -6.9185921e-04 0.0000000e+00 
3.5981650e-05 -6.9204279e-04 0.0000000e+00 
-4.8272730e-05 -7.2953023e-04 0.0000000e+00 
-1.9815450e-05 -7.2928064e-04 0.0000000e+00 
8.6397852e-06 -7.2924815e-04 0.0000000e+00 
3.7093487e-05 -7.2943256e-04 0.0000000e+00 
-4.9644485e-05 -7.6802111e-04 0.0000000e+00 
-2.0359580e-05 -7.6777323e-04 0.0000000e+00 
8.9228082e-06 -7.6774216e-04 0.0000000e+00 
3.8204200e-05 -7.6792790e-04 0.0000000e+00 
-5.1015370e-05 -8.0761583e-04 0.0000000e+00 
-2.0903625e-05 -8.0736971e-04 0.0000000e+00 
9.2047365e-06 -8.0734005e-04 0.0000000e+00 
3.9312282e-05 -8.0752664e-04 0.0000000e+00 
-5.2383518e-05 -8.4831195e-04 0.0000000e+00 
-2.1447188e-05 -8.4806807e-04 0.0000000e+00 
9.4851528e-06 -8.4803992e-04 0.0000000e+00 
4.0417220e-05 -8.4822752e-04 0.0000000e+00 
-5.3747956e-05 -8.9010671e-04 0.0000000e+00 
-2.1989729e-05 -8.8986519e-04 0.0000000e+00 
9.7637778e-06 -8.8983857e-04 0.0000000e+00 
4.1517413e-05 -8.9002678e-04 0.0000000e+00 
-5.5107064e-05 -9.3299546e-04 0.0000000e+00 
-2.2530817e-05 -9.3275673e-04 0.0000000e+00 
1.0040175e-05 -9.3273181e-04 0.0000000e+00 
4.2611916e-05 -9.3292067e-04 0.0000000e+00 
-5.6459788e-05 -9.7697272e-04 0.0000000e+00 
-2.3069770e-05 -9.7673722e-04 0.0000000e+00 
1.0314054e-05 -9.7671420e-04 0.0000000e+00 
4.3699063e-05 -9.7690343e-04 0.0000000e+00 
-5.7804133e-05 -1.0220320e-03 0.0000000e+00 
-2.3605960e-05 -1.0218002e-03 0.0000000e+00 
1.0585134e-05 -1.0217791e-03 0.0000000e+00 
4.4777752e-05 -1.0219690e-03 0.0000000e+00 
-5.9138459e-05 -1.0681657e-03 0.0000000e+00 
-2.4138866e-05 -1.0679376e-03 0.0000000e+00 
1.0852981e-05 -1.0679185e-03 0.0000000e+00 
4.5847009e-05 -1.0681083e-03 0.0000000e+00 
-6.0461474e-05 -1.1153636e-03 0.0000000e+00 
-2.4667798e-05 -1.1151399e-03 0.0000000e+00 
1.1117202e-05 -1.1151229e-03 0.0000000e+00 
4.6904994e-05 -1.1153129e-03 0.0000000e+00 
-6.1771044e-05 -1.1636160e-03 0.0000000e+00 
-2.5192218e-05 -1.1633966e-03 0.0000000e+00 
1.1377253e-05 -1.1633818e-03 0.0000000e+00 
4.7950341e-05 -1.1635712e-03 0.0000000e+00 
-6.3065796e-05 -1.2129090e-03 0.0000000e+00 
-2.5711310e-05 -1.2126951e-03 0.0000000e+00 
1.1632871e-05 -1.2126829e-03 0.0000000e+00 
4.8981057e-05 -1.2128724e-03 0.0000000e+00 
-6.4343618e-05 -1.2632311e-03 0.0000000e+00 
-2.6224515e-05 -1.2630222e-03 0.0000000e+00 
1.1883495e-05 -1.2630120e-03 0.0000000e+00 
4.9996230e-05 -1.2632005e-03 0.0000000e+00 
-6.5602977e-05 -1.3145649e-03 0.0000000e+00 
-2.6731240e-05 -1.3143621e-03 0.0000000e+00 
1.2128683e-05 -1.3143545e-03 0.0000000e+00 
5.0993992e-05 -1.3145425e-03 0.0000000e+00 
-6.6842187e-05 -1.3668958e-03 0.0000000e+00 
-2.7230923e-05 -1.3666984e-03 0.0000000e+00 
1.2367905e-05 -1.3666932e-03 0.0000000e+00 
5.1972906e-05 -1.3668795e-03 0.0000000e+00 
-6.8059865e-05 -1.4202031e-03 0.0000000e+00 
-2.7722826e-05 -1.4200128e-03 0.0000000e+00 
1.2600900e-05 -1.4200104e-03 0.0000000e+00 
5.2931180e-05 -1.4201963e-03 0.0000000e+00 
-6.9254005e-05 -1.4744704e-03 0.0000000e+00 
-2.8206452e-05 -1.4742861e-03 0.0000000e+00 
1.2827172e-05 -1.4742861e-03 0.0000000e+00 
5.3867973e-05 -1.4744698e-03 0.0000000e+00 
-7.0423370e-05 -1.5296739e-03 0.0000000e+00 
-2.8681254e-05 -1.5294971e-03 0.0000000e+00 
1.3046415e-05 -1.5295000e-03 0.0000000e+00 
5.4781773e-05 -1.5296830e-03 0.0000000e+00 
-7.1566728e-05 -1.5857947e-03 0.0000000e+00 
-2.9146820e-05 -1.5856244e-03 0.0000000e+00 
1.3258270e-05 -1.5856297e-03 0.0000000e+00 
5.5671485e-05 -1.5858101e-03 0.0000000e+00 
-7.2683157e-05 -1.6428066e-03 0.0000000e+00 
-2.9602649e-05 -1.6426444e-03 0.0000000e+00 
1.3462454e-05 -1.6426528e-03 0.0000000e+00 
5.6536063e-05 -1.6428321e-03 0.0000000e+00 
-7.3771222e-05 -1.7006898e-03 0.0000000e+00 
-3.0048444e-05 -1.7005344e-03 0.0000000e+00 
1.3658613e-05 -1.7005450e-03 0.0000000e+00 
5.7374743e-05 -1.7007213e-03 0.0000000e+00 
-7.4829931e-05 -1.7594157e-03 0.0000000e+00 
-3.0483892e-05 -1.7592686e-03 0.0000000e+00 
1.3846566e-05 -1.7592826e-03 0.0000000e+00 
5.8186672e-05 -1.7594577e-03 0.0000000e+00 
-7.5859052e-05 -1.8189604e-03 0.0000000e+00 
-3.0908007e-05 -1.8188220e-03 0.0000000e+00 
1.4026900e-05 -1.8188395e-03 0.0000000e+00 
5.8971257e-05 -1.8190134e-03 0.0000000e+00 
-7.6857651e-05 -1.8793009e-03 0.0000000e+00 
-3.1321279e-05 -1.8791694e-03 0.0000000e+00 
1.4198815e-05 -1.8791893e-03 0.0000000e+00 
5.9728346e-05 -1.8793598e-03 0.0000000e+00 
-7.7825669e-05 -1.9404066e-03 0.0000000e+00 
-3.1723596e-05 -1.9402839e-03 0.0000000e+00 
1.4362340e-05 -1.9403069e-03 0.0000000e+00 
6.0457763e-05 -1.9404762e-03 0.0000000e+00 
-7.8763358e-05 -2.0022560e-03 0.0000000e+00 
-3.2114904e-05 -2.0021401e-03 0.0000000e+00 
1.4517553e-05 -2.0021654e-03 0.0000000e+00 
6.1159469e-05 -2.0023314e-03 0.0000000e+00 
-7.9670855e-05 -2.0648185e-03 0.0000000e+00 
-3.2495197e-05 -2.0647114e-03 0.0000000e+00 
1.4664608e-05 -2.0647399e-03 0.0000000e+00 
6.1833728e-05 -2.0649049e-03 0.0000000e+00 
-8.0548403e-05 -2.1280734e-03 0.0000000e+00 
-3.2864601e-05 -2.1279728e-03 0.0000000e+00 
1.4803669e-05 -2.1280037e-03 0.0000000e+00 
6.2480967e-05 -2.1281653e-03 0.0000000e+00 
-8.1396527e-05 -2.1919903e-03 0.0000000e+00 
-3.3223203e-05 -2.1918984e-03 0.0000000e+00 
1.4934863e-05 -2.1919324e-03 0.0000000e+00 
6.3101893e-05 -2.1920930e-03 0.0000000e+00 
-8.2215736e-05 -2.2565501e-03 0.0000000e+00 
-3.3571182e-05 -2.2564645e-03 0.0000000e+00 
1.5058422e-05 -2.2565007e-03 0.0000000e+00 
6.3696754e-05 -2.2566581e-03 0.0000000e+00 
-8.3006533e-05 -2.3217231e-03 0.0000000e+00 
-3.3908713e-05 -2.3216459e-03 0.0000000e+00 
1.5174550e-05 -2.3216852e-03 0.0000000e+00 
6.4266312e-05 -2.3218418e-03 0.0000000e+00 
-8.3769734e-05 -2.3874913e-03 0.0000000e+00 
-3.4236007e-05 -2.3874200e-03 0.0000000e+00 
1.5283497e-05 -2.3874615e-03 0.0000000e+00 
6.4811183e-05 -2.3876150e-03 0.0000000e+00 
-8.4505867e-05 -2.4538261e-03 0.0000000e+00 
-3.4553317e-05 -2.4537630e-03 0.0000000e+00 
1.5385412e-05 -2.4538074e-03 0.0000000e+00 
6.5332254e-05 -2.4539601e-03 0.0000000e+00 
-8.5215761e-05 -2.5207108e-03 0.0000000e+00 
-3.4860845e-05 -2.5206533e-03 0.0000000e+00 
1.5480548e-05 -2.5206997e-03 0.0000000e+00 
6.5829770e-05 -2.5208496e-03 0.0000000e+00 
-8.5899871e-05 -2.5881182e-03 0.0000000e+00 
-3.5158877e-05 -2.5880683e-03 0.0000000e+00 
1.5569036e-05 -2.5881176e-03 0.0000000e+00 
6.6304611e-05 -2.5882667e-03 0.0000000e+00 
-8.6559074e-05 -2.6560322e-03 0.0000000e+00 
-3.5447667e-05 -2.6559877e-03 0.0000000e+00 
1.5651072e-05 -2.6560388e-03 0.0000000e+00 
6.6757292e-05 -2.6561851e-03 0.0000000e+00 
-8.7193679e-05 -2.7244270e-03 0.0000000e+00 
-3.5727537e-05 -2.7243898e-03 0.0000000e+00 
1.5726753e-05 -2.7244439e-03 0.0000000e+00 
6.7188814e-05 -2.7245895e-03 0.0000000e+00 
-8.7804727e-05 -2.7932854e-03 0.0000000e+00 
-3.5997940e-05 -2.7932551e-03 0.0000000e+00 
1.5797013e-05 -2.7933121e-03 0.0000000e+00 
6.7599288e-05 -2.7934570e-03 0.0000000e+00 
-8.8392700e-05 -2.8625902e-03 0.0000000e+00 
-3.6259883e-05 -2.8625648e-03 0.0000000e+00 
1.5861220e-05 -2.8626235e-03 0.0000000e+00 
6.7989333e-05 -2.8627658e-03 0.0000000e+00 
-8.8957951e-05 -2.9323175e-03 0.0000000e+00 
-3.6513580e-05 -2.9322989e-03 0.0000000e+00 
1.5919473e-05 -2.9323600e-03 0.0000000e+00 
6.8359551e-05 -2.9325015e-03 0.0000000e+00 
-8.9501356e-05 -3.0024534e-03 0.0000000e+00 
-3.6759112e-05 -3.0024394e-03 0.0000000e+00 
1.5971971e-05 -3.0025021e-03 0.0000000e+00 
6.8709949e-05 -3.0026411e-03 0.0000000e+00 
-9.0022994e-05 -3.0729749e-03 0.0000000e+00 
-3.6996728e-05 -3.0729673e-03 0.0000000e+00 
1.6018755e-05 -3.0730323e-03 0.0000000e+00 
6.9041121e-05 -3.0731706e-03 0.0000000e+00 
-9.0523658e-05 -3.1438686e-03 0.0000000e+00 
-3.7226535e-05 -3.1438654e-03 0.0000000e+00 
1.6059955e-05 -3.1439319e-03 0.0000000e+00 
6.9353182e-05 -3.1440676e-03 0.0000000e+00 
-9.1003410e-05 -3.2151124e-03 0.0000000e+00 
-3.7448773e-05 -3.2151152e-03 0.0000000e+00 
1.6095568e-05 -3.2151838e-03 0.0000000e+00 
6.9646711e-05 -3.2153186e-03 0.0000000e+00 
-9.1462938e-05 -3.2866931e-03 0.0000000e+00 
-3.7663533e-05 -3.2867001e-03 0.0000000e+00 
1.6125714e-05 -3.2867700e-03 0.0000000e+00 
6.9921652e-05 -3.2869024e-03 0.0000000e+00 
-9.1902282e-05 -3.3585896e-03 0.0000000e+00 
-3.7871013e-05 -3.3586024e-03 0.0000000e+00 
1.6150401e-05 -3.3586742e-03 0.0000000e+00 
7.0178524e-05 -3.3588056e-03 0.0000000e+00 
-9.2322063e-05 -3.4307889e-03 0.0000000e+00 
-3.8071291e-05 -3.4308057e-03 0.0000000e+00 
1.6169732e-05 -3.4308788e-03 0.0000000e+00 
7.0417362e-05 -3.4310077e-03 0.0000000e+00 
-9.2722287e-05 -3.5032707e-03 0.0000000e+00 
-3.8264591e-05 -3.5032930e-03 0.0000000e+00 
1.6183712e-05 -3.5033678e-03 0.0000000e+00 
7.0638661e-05 -3.5034957e-03 0.0000000e+00 
-9.3103694e-05 -3.5760223e-03 0.0000000e+00 
-3.8450997e-05 -3.5760483e-03 0.0000000e+00 
1.6192460e-05 -3.5761242e-03 0.0000000e+00 
7.0842412e-05 -3.5762497e-03 0.0000000e+00 
-9.3466369e-05 -3.6490241e-03 0.0000000e+00 
-3.8630737e-05 -3.6490552e-03 0.0000000e+00 
1.6195972e-05 -3.6491326e-03 0.0000000e+00 
7.1029193e-05 -3.6492570e-03 0.0000000e+00 
-9.3810951e-05 -3.7222636e-03 0.0000000e+00 
-3.8803944e-05 -3.7222983e-03 0.0000000e+00 
1.6194361e-05 -3.7223767e-03 0.0000000e+00 
7.1199058e-05 -3.7224986e-03 0.0000000e+00 
-9.4137495e-05 -3.7957224e-03 0.0000000e+00 
-3.8970892e-05 -3.7957618e-03 0.0000000e+00 
1.6187605e-05 -3.7958417e-03 0.0000000e+00 
7.1352713e-05 -3.7959624e-03 0.0000000e+00 
-9.4446880e-05 -3.8693870e-03 0.0000000e+00 
-3.9131350e-05 -3.8694307e-03 0.0000000e+00 
1.6176245e-05 -3.8695122e-03 0.0000000e+00 
7.1490184e-05 -3.8696315e-03 0.0000000e+00 
-9.4739627e-05 -3.9432439e-03 0.0000000e+00 
-3.9285958e-05 -3.9432909e-03 0.0000000e+00 
1.6159954e-05 -3.9433730e-03 0.0000000e+00 
7.1611920e-05 -3.9434900e-03 0.0000000e+00 
-9.5016103e-05 -4.0172764e-03 0.0000000e+00 
-3.9434967e-05 -4.0173275e-03 0.0000000e+00 
1.6138829e-05 -4.0174107e-03 0.0000000e+00 
7.1718610e-05 -4.0175265e-03 0.0000000e+00 
-9.5277221e-05 -4.0914731e-03 0.0000000e+00 
-3.9578528e-05 -4.0915272e-03 0.0000000e+00 
1.6113099e-05 -4.0916111e-03 0.0000000e+00 
7.1810450e-05 -4.0917246e-03 0.0000000e+00 
-9.5523359e-05 -4.1658187e-03 0.0000000e+00 
-3.9716936e-05 -4.1658764e-03 0.0000000e+00 
1.6082858e-05 -4.1659613e-03 0.0000000e+00 
7.1888263e-05 -4.1660736e-03 0.0000000e+00 
-9.5755447e-05 -4.2403025e-03 0.0000000e+00 
-3.9850392e-05 -4.2403630e-03 0.0000000e+00 
1.6048328e-05 -4.2404484e-03 0.0000000e+00 
7.1952369e-05 -4.2405586e-03 0.0000000e+00 