# vtk DataFile Version 4.0
vtk output
ASCII
DATASET UNSTRUCTURED_GRID
POINTS 604 float
5.5000000e+00 5.9700000e+00 0.0000000e+00 
5.5000000e+00 5.9900000e+00 0.0000000e+00 
5.5266667e+00 5.9700000e+00 0.0000000e+00 
5.5266667e+00 5.9900000e+00 0.0000000e+00 
5.5000000e+00 6.0100000e+00 0.0000000e+00 
5.5266667e+00 6.0100000e+00 0.0000000e+00 
5.5533333e+00 5.9700000e+00 0.0000000e+00 
5.5533333e+00 5.9900000e+00 0.0000000e+00 
5.5000000e+00 6.0300000e+00 0.0000000e+00 
5.5266667e+00 6.0300000e+00 0.0000000e+00 
5.5533333e+00 6.0100000e+00 0.0000000e+00 
5.5800000e+00 5.9700000e+00 0.0000000e+00 
5.5533333e+00 6.0300000e+00 0.0000000e+00 
5.5800000e+00 5.9900000e+00 0.0000000e+00 
5.5800000e+00 6.0100000e+00 0.0000000e+00 
5.5800000e+00 6.0300000e+00 0.0000000e+00 
5.6066667e+00 5.9700000e+00 0.0000000e+00 
5.6066667e+00 5.9900000e+00 0.0000000e+00 
5.6066667e+00 6.0100000e+00 0.0000000e+00 
5.6066667e+00 6.0300000e+00 0.0000000e+00 
5.6333333e+00 5.9700000e+00 0.0000000e+00 
5.6333333e+00 5.9900000e+00 0.0000000e+00 
5.6333333e+00 6.0100000e+00 0.0000000e+00 
5.6333333e+00 6.0300000e+00 0.0000000e+00 
5.6600000e+00 5.9700000e+00 0.0000000e+00 
5.6600000e+00 5.9900000e+00 0.0000000e+00 
5.6600000e+00 6.0100000e+00 0.0000000e+00 
5.6600000e+00 6.0300000e+00 0.0000000e+00 
5.6866667e+00 5.9700000e+00 0.0000000e+00 
5.6866667e+00 5.9900000e+00 0.0000000e+00 
5.6866667e+00 6.0100000e+00 0.0000000e+00 
5.6866667e+00 6.0300000e+00 0.0000000e+00 
5.7133333e+00 5.9700000e+00 0.0000000e+00 
5.7133333e+00 5.9900000e+00 0.0000000e+00 
5.7133333e+00 6.0100000e+00 0.0000000e+00 
5.7133333e+00 6.0300000e+00 0.0000000e+00 
5.7400000e+00 5.9700000e+00 0.0000000e+00 
5.7400000e+00 5.9900000e+00 0.0000000e+00 
5.7400000e+00 6.0100000e+00 0.0000000e+00 
5.7400000e+00 6.0300000e+00 0.0000000e+00 
5.7666667e+00 5.9700000e+00 0.0000000e+00 
5.7666667e+00 5.9900000e+00 0.0000000e+00 
5.7666667e+00 6.0100000e+00 0.0000000e+00 
5.7666667e+00 6.0300000e+00 0.0000000e+00 
5.7933333e+00 5.9700000e+00 0.0000000e+00 
5.7933333e+00 5.9900000e+00 0.0000000e+00 
5.7933333e+00 6.0100000e+00 0.0000000e+00 
5.7933333e+00 6.0300000e+00 0.0000000e+00 
5.8200000e+00 5.9700000e+00 0.0000000e+00 
5.8200000e+00 5.9900000e+00 0.0000000e+00 
5.8200000e+00 6.0100000e+00 0.0000000e+00 
5.8200000e+00 6.0300000e+00 0.0000000e+00 
5.8466667e+00 5.9700000e+00 0.0000000e+00 
5.8466667e+00 5.9900000e+00 0.0000000e+00 
5.8466667e+00 6.0100000e+00 0.0000000e+00 
5.8466667e+00 6.0300000e+00 0.0000000e+00 
5.8733333e+00 5.9700000e+00 0.0000000e+00 
5.8733333e+00 5.9900000e+00 0.0000000e+00 
5.8733333e+00 6.0100000e+00 0.0000000e+00 
5.8733333e+00 6.0300000e+00 0.0000000e+00 
5.9000000e+00 5.9700000e+00 0.0000000e+00 
5.9000000e+00 5.9900000e+00 0.0000000e+00 
5.9000000e+00 6.0100000e+00 0.0000000e+00 
5.9000000e+00 6.0300000e+00 0.0000000e+00 
5.9266667e+00 5.9700000e+00 0.0000000e+00 
5.9266667e+00 5.9900000e+00 0.0000000e+00 
5.9266667e+00 6.0100000e+00 0.0000000e+00 
5.9266667e+00 6.0300000e+00 0.0000000e+00 
5.9533333e+00 5.9700000e+00 0.0000000e+00 
5.9533333e+00 5.9900000e+00 0.0000000e+00 
5.9533333e+00 6.0100000e+00 0.0000000e+00 
5.9533333e+00 6.0300000e+00 0.0000000e+00 
5.9800000e+00 5.9700000e+00 0.0000000e+00 
5.9800000e+00 5.9900000e+00 0.0000000e+00 
5.9800000e+00 6.0100000e+00 0.0000000e+00 
5.9800000e+00 6.0300000e+00 0.0000000e+00 
6.0066667e+00 5.9700000e+00 0.0000000e+00 
6.0066667e+00 5.9900000e+00 0.0000000e+00 
6.0066667e+00 6.0100000e+00 0.0000000e+00 
6.0066667e+00 6.0300000e+00 0.0000000e+00 
6.0333333e+00 5.9700000e+00 0.0000000e+00 
6.0333333e+00 5.9900000e+00 0.0000000e+00 
6.0333333e+00 6.0100000e+00 0.0000000e+00 
6.0333333e+00 6.0300000e+00 0.0000000e+00 
6.0600000e+00 5.9700000e+00 0.0000000e+00 
6.0600000e+00 5.9900000e+00 0.0000000e+00 
6.0600000e+00 6.0100000e+00 0.0000000e+00 
6.0600000e+00 6.0300000e+00 0.0000000e+00 
6.0866667e+00 5.9700000e+00 0.0000000e+00 
6.0866667e+00 5.9900000e+00 0.0000000e+00 
6.0866667e+00 6.0100000e+00 0.0000000e+00 
6.0866667e+00 6.0300000e+00 0.0000000e+00 
6.1133333e+00 5.9700000e+00 0.0000000e+00 
6.1133333e+00 5.9900000e+00 0.0000000e+00 
6.1133333e+00 6.0100000e+00 0.0000000e+00 
6.1133333e+00 6.0300000e+00 0.0000000e+00 
6.1400000e+00 5.9700000e+00 0.0000000e+00 
6.1400000e+00 5.9900000e+00 0.0000000e+00 
6.1400000e+00 6.0100000e+00 0.0000000e+00 
6.1400000e+00 6.0300000e+00 0.0000000e+00 
6.1666667e+00 5.9700000e+00 0.0000000e+00 
6.1666667e+00 5.9900000e+00 0.0000000e+00 
6.1666667e+00 6.0100000e+00 0.0000000e+00 
6.1666667e+00 6.0300000e+00 0.0000000e+00 
6.1933333e+00 5.9700000e+00 0.0000000e+00 
6.1933333e+00 5.9900000e+00 0.0000000e+00 
6.1933333e+00 6.0100000e+00 0.0000000e+00 
6.1933333e+00 6.0300000e+00 0.0000000e+00 
6.2200000e+00 5.9700000e+00 0.0000000e+00 
6.2200000e+00 5.9900000e+00 0.0000000e+00 
6.2200000e+00 6.0100000e+00 0.0000000e+00 
6.2200000e+00 6.0300000e+00 0.0000000e+00 
6.2466667e+00 5.9700000e+00 0.0000000e+00 
6.2466667e+00 5.9900000e+00 0.0000000e+00 
6.2466667e+00 6.0100000e+00 0.0000000e+00 
6.2466667e+00 6.0300000e+00 0.0000000e+00 
6.2733333e+00 5.9700000e+00 0.0000000e+00 
6.2733333e+00 5.9900000e+00 0.0000000e+00 
6.2733333e+00 6.0100000e+00 0.0000000e+00 
6.2733333e+00 6.0300000e+00 0.0000000e+00 
6.3000000e+00 5.9700000e+00 0.0000000e+00 
6.3000000e+00 5.9900000e+00 0.0000000e+00 
6.3000000e+00 6.0100000e+00 0.0000000e+00 
6.3000000e+00 6.0300000e+00 0.0000000e+00 
6.3266667e+00 5.9700000e+00 0.0000000e+00 
6.3266667e+00 5.9900000e+00 0.0000000e+00 
6.3266667e+00 6.0100000e+00 0.0000000e+00 
6.3266667e+00 6.0300000e+00 0.0000000e+00 
6.3533333e+00 5.9700000e+00 0.0000000e+00 
6.3533333e+00 5.9900000e+00 0.0000000e+00 
6.3533333e+00 6.0100000e+00 0.0000000e+00 
6.3533333e+00 6.0300000e+00 0.0000000e+00 
6.3800000e+00 5.9700000e+00 0.0000000e+00 
6.3800000e+00 5.9900000e+00 0.0000000e+00 
6.3800000e+00 6.0100000e+00 0.0000000e+00 
6.3800000e+00 6.0300000e+00 0.0000000e+00 
6.4066667e+00 5.9700000e+00 0.0000000e+00 
6.4066667e+00 5.9900000e+00 0.0000000e+00 
6.4066667e+00 6.0100000e+00 0.0000000e+00 
6.4066667e+00 6.0300000e+00 0.0000000e+00 
6.4333333e+00 5.9700000e+00 0.0000000e+00 
6.4333333e+00 5.9900000e+00 0.0000000e+00 
6.4333333e+00 6.0100000e+00 0.0000000e+00 
6.4333333e+00 6.0300000e+00 0.0000000e+00 
6.4600000e+00 5.9700000e+00 0.0000000e+00 
6.4600000e+00 5.9900000e+00 0.0000000e+00 
6.4600000e+00 6.0100000e+00 0.0000000e+00 
6.4600000e+00 6.0300000e+00 0.0000000e+00 
6.4866667e+00 5.9700000e+00 0.0000000e+00 
6.4866667e+00 5.9900000e+00 0.0000000e+00 
6.4866667e+00 6.0100000e+00 0.0000000e+00 
6.4866667e+00 6.0300000e+00 0.0000000e+00 
6.5133333e+00 5.9700000e+00 0.0000000e+00 
6.5133333e+00 5.9900000e+00 0.0000000e+00 
6.5133333e+00 6.0100000e+00 0.0000000e+00 
6.5133333e+00 6.0300000e+00 0.0000000e+00 
6.5400000e+00 5.9700000e+00 0.0000000e+00 
6.5400000e+00 5.9900000e+00 0.0000000e+00 
6.5400000e+00 6.0100000e+00 0.0000000e+00 
6.5400000e+00 6.0300000e+00 0.0000000e+00 
6.5666667e+00 5.9700000e+00 0.0000000e+00 
6.5666667e+00 5.9900000e+00 0.0000000e+00 
6.5666667e+00 6.0100000e+00 0.0000000e+00 
6.5666667e+00 6.0300000e+00 0.0000000e+00 
6.5933333e+00 5.9700000e+00 0.0000000e+00 
6.5933333e+00 5.9900000e+00 0.0000000e+00 
6.5933333e+00 6.0100000e+00 0.0000000e+00 
6.5933333e+00 6.0300000e+00 0.0000000e+00 
6.6200000e+00 5.9700000e+00 0.0000000e+00 
6.6200000e+00 5.9900000e+00 0.0000000e+00 
6.6200000e+00 6.0100000e+00 0.0000000e+00 
6.6200000e+00 6.0300000e+00 0.0000000e+00 
6.6466667e+00 5.9700000e+00 0.0000000e+00 
6.6466667e+00 5.9900000e+00 0.0000000e+00 
6.6466667e+00 6.0100000e+00 0.0000000e+00 
6.6466667e+00 6.0300000e+00 0.0000000e+00 
6.6733333e+00 5.9700000e+00 0.0000000e+00 
6.6733333e+00 5.9900000e+00 0.0000000e+00 
6.6733333e+00 6.0100000e+00 0.0000000e+00 
6.6733333e+00 6.0300000e+00 0.0000000e+00 
6.7000000e+00 5.9700000e+00 0.0000000e+00 
6.7000000e+00 5.9900000e+00 0.0000000e+00 
6.7000000e+00 6.0100000e+00 0.0000000e+00 
6.7000000e+00 6.0300000e+00 0.0000000e+00 
6.7266667e+00 5.9700000e+00 0.0000000e+00 
6.7266667e+00 5.9900000e+00 0.0000000e+00 
6.7266667e+00 6.0100000e+00 0.0000000e+00 
6.7266667e+00 6.0300000e+00 0.0000000e+00 
6.7533333e+00 5.9700000e+00 0.0000000e+00 
6.7533333e+00 5.9900000e+00 0.0000000e+00 
6.7533333e+00 6.0100000e+00 0.0000000e+00 
6.7533333e+00 6.0300000e+00 0.0000000e+00 
6.7800000e+00 5.9700000e+00 0.0000000e+00 
6.7800000e+00 5.9900000e+00 0.0000000e+00 
6.7800000e+00 6.0100000e+00 0.0000000e+00 
6.7800000e+00 6.0300000e+00 0.0000000e+00 
6.8066667e+00 5.9700000e+00 0.0000000e+00 
6.8066667e+00 5.9900000e+00 0.0000000e+00 
6.8066667e+00 6.0100000e+00 0.0000000e+00 
6.8066667e+00 6.0300000e+00 0.0000000e+00 
6.8333333e+00 5.9700000e+00 0.0000000e+00 
6.8333333e+00 5.9900000e+00 0.0000000e+00 
6.8333333e+00 6.0100000e+00 0.0000000e+00 
6.8333333e+00 6.0300000e+00 0.0000000e+00 
6.8600000e+00 5.9700000e+00 0.0000000e+00 
6.8600000e+00 5.9900000e+00 0.0000000e+00 
6.8600000e+00 6.0100000e+00 0.0000000e+00 
6.8600000e+00 6.0300000e+00 0.0000000e+00 
6.8866667e+00 5.9700000e+00 0.0000000e+00 
6.8866667e+00 5.9900000e+00 0.0000000e+00 
6.8866667e+00 6.0100000e+00 0.0000000e+00 
6.8866667e+00 6.0300000e+00 0.0000000e+00 
6.9133333e+00 5.9700000e+00 0.0000000e+00 
6.9133333e+00 5.9900000e+00 0.0000000e+00 
6.9133333e+00 6.0100000e+00 0.0000000e+00 
6.9133333e+00 6.0300000e+00 0.0000000e+00 
6.9400000e+00 5.9700000e+00 0.0000000e+00 
6.9400000e+00 5.9900000e+00 0.0000000e+00 
6.9400000e+00 6.0100000e+00 0.0000000e+00 
6.9400000e+00 6.0300000e+00 0.0000000e+00 
6.9666667e+00 5.9700000e+00 0.0000000e+00 
6.9666667e+00 5.9900000e+00 0.0000000e+00 
6.9666667e+00 6.0100000e+00 0.0000000e+00 
6.9666667e+00 6.0300000e+00 0.0000000e+00 
6.9933333e+00 5.9700000e+00 0.0000000e+00 
6.9933333e+00 5.9900000e+00 0.0000000e+00 
6.9933333e+00 6.0100000e+00 0.0000000e+00 
6.9933333e+00 6.0300000e+00 0.0000000e+00 
7.0200000e+00 5.9700000e+00 0.0000000e+00 
7.0200000e+00 5.9900000e+00 0.0000000e+00 
[...]
POINT_DATA 604
FIELD FieldData 2
DISPLACEMENT 3 604  float
0.0000000e+00 0.0000000e+00 0.0000000e+00 
0.0000000e+00 0.0000000e+00 0.0000000e+00 
1.6792843e-04 1.0145914e-04 0.0000000e+00 
5.3121980e-05 6.5568829e-05 0.0000000e+00 
0.0000000e+00 0.0000000e+00 0.0000000e+00 
-5.4287320e-05 6.5116210e-05 0.0000000e+00 
3.3852911e-04 3.2759758e-04 0.0000000e+00 
1.1169306e-04 2.9680243e-04 0.0000000e+00 
0.0000000e+00 0.0000000e+00 0.0000000e+00 
-1.6933452e-04 1.0022641e-04 0.0000000e+00 
-1.1567989e-04 2.9529775e-04 0.0000000e+00 
5.0577733e-04 7.1123713e-04 0.0000000e+00 
-3.4316904e-04 3.2328361e-04 0.0000000e+00 
1.6500971e-04 6.7851297e-04 0.0000000e+00 
-1.7524464e-04 6.7542126e-04 0.0000000e+00 
-5.1705280e-04 7.0212823e-04 0.0000000e+00 
6.6831805e-04 1.2459722e-03 0.0000000e+00 
2.1548667e-04 1.2114476e-03 0.0000000e+00 
-2.3713161e-04 1.2061380e-03 0.0000000e+00 
-6.9131396e-04 1.2301844e-03 0.0000000e+00 
8.2544487e-04 1.9304299e-03 0.0000000e+00 
2.6185736e-04 1.8934403e-03 0.0000000e+00 
-3.0165034e-04 1.8853156e-03 0.0000000e+00 
-8.6689103e-04 1.9061854e-03 0.0000000e+00 
9.7635723e-04 2.7626869e-03 0.0000000e+00 
3.0339828e-04 2.7226710e-03 0.0000000e+00 
-3.6962594e-04 2.7111629e-03 0.0000000e+00 
-1.0445307e-03 2.7282775e-03 0.0000000e+00 
1.1203051e-03 3.7408649e-03 0.0000000e+00 
3.3935716e-04 3.6972775e-03 0.0000000e+00 
-4.4179396e-04 3.6818397e-03 0.0000000e+00 
-1.2249685e-03 3.6946520e-03 0.0000000e+00 
1.2565663e-03 4.8630744e-03 0.0000000e+00 
3.6901803e-04 4.8153931e-03 0.0000000e+00 
-5.1886553e-04 4.7955016e-03 0.0000000e+00 
-1.4089093e-03 4.8034863e-03 0.0000000e+00 
1.3844489e-03 6.1274190e-03 0.0000000e+00 
3.9169451e-04 6.0751435e-03 0.0000000e+00 
-6.0152160e-04 6.0502968e-03 0.0000000e+00 
-1.5970288e-03 6.0529509e-03 0.0000000e+00 
1.5032911e-03 7.5319953e-03 0.0000000e+00 
4.0672995e-04 7.4746474e-03 0.0000000e+00 
-6.9041371e-04 7.4443658e-03 0.0000000e+00 
-1.7899734e-03 7.4412084e-03 0.0000000e+00 
1.6124609e-03 9.0748939e-03 0.0000000e+00 
4.1349702e-04 9.0120171e-03 0.0000000e+00 
-7.8616431e-04 8.9758428e-03 0.0000000e+00 
-1.9883609e-03 8.9664152e-03 0.0000000e+00 
1.7113552e-03 1.0754199e-02 0.0000000e+00 
4.1139764e-04 1.0685359e-02 0.0000000e+00 
-8.8936702e-04 1.0642856e-02 0.0000000e+00 
-2.1927802e-03 1.0626720e-02 0.0000000e+00 
1.7994006e-03 1.2567990e-02 0.0000000e+00 
3.9986244e-04 1.2492772e-02 0.0000000e+00 
-1.0005870e-03 1.2443526e-02 0.0000000e+00 
-2.4037926e-03 1.2420267e-02 0.0000000e+00 
1.8760524e-03 1.4514341e-02 0.0000000e+00 
3.7835073e-04 1.4432353e-02 0.0000000e+00 
-1.1203611e-03 1.4375970e-02 0.0000000e+00 
-2.6219311e-03 1.4345193e-02 0.0000000e+00 
1.9407947e-03 1.6591322e-02 0.0000000e+00 
3.4634989e-04 1.6502192e-02 0.0000000e+00 
-1.2491985e-03 1.6438298e-02 0.0000000e+00 
-2.8477015e-03 1.6399631e-02 0.0000000e+00 
1.9931395e-03 1.8796997e-02 0.0000000e+00 
3.0337527e-04 1.8700374e-02 0.0000000e+00 
-1.3875809e-03 1.8628618e-02 0.0000000e+00 
-3.0815823e-03 1.8581707e-02 0.0000000e+00 
2.0326268e-03 2.1129430e-02 0.0000000e+00 
2.4896971e-04 2.1024983e-02 0.0000000e+00 
-1.5359627e-03 2.0945033e-02 0.0000000e+00 
-3.3240256e-03 2.0889545e-02 0.0000000e+00 
2.0588246e-03 2.3586678e-02 0.0000000e+00 
1.8270320e-04 2.3474096e-02 0.0000000e+00 
-1.6947716e-03 2.3385641e-02 0.0000000e+00 
-3.5754569e-03 2.3321264e-02 0.0000000e+00 
2.0713275e-03 2.6166800e-02 0.0000000e+00 
1.0417253e-04 2.6045791e-02 0.0000000e+00 
-1.8644091e-03 2.5948539e-02 0.0000000e+00 
-3.8362756e-03 2.5874981e-02 0.0000000e+00 
2.0697570e-03 2.8867850e-02 0.0000000e+00 
1.3000963e-05 2.8738143e-02 0.0000000e+00 
-2.0452504e-03 2.8631820e-02 0.0000000e+00 
-4.1068558e-03 2.8548810e-02 0.0000000e+00 
2.0537619e-03 3.1687883e-02 0.0000000e+00 
-9.1162311e-05 3.1549224e-02 0.0000000e+00 
-2.2376454e-03 3.1433578e-02 0.0000000e+00 
-4.3875466e-03 3.1340860e-02 0.0000000e+00 
2.0230159e-03 3.4624951e-02 0.0000000e+00 
-2.0864253e-04 3.4477106e-02 0.0000000e+00 
-2.4419187e-03 3.4351903e-02 0.0000000e+00 
-4.6786719e-03 3.4249245e-02 0.0000000e+00 
1.9772184e-03 3.7677109e-02 0.0000000e+00 
-3.3973983e-04 3.7519862e-02 0.0000000e+00 
-2.6583700e-03 3.7384886e-02 0.0000000e+00 
-4.9805312e-03 3.7272070e-02 0.0000000e+00 
1.9160941e-03 4.0842409e-02 0.0000000e+00 
-4.8472982e-04 4.0675563e-02 0.0000000e+00 
-2.8872748e-03 4.0530616e-02 0.0000000e+00 
-5.2934000e-03 4.0407446e-02 0.0000000e+00 
1.8393911e-03 4.4118905e-02 0.0000000e+00 
-6.4386363e-04 4.3942281e-02 0.0000000e+00 
-3.1288846e-03 4.3787183e-02 0.0000000e+00 
-5.6175299e-03 4.3653479e-02 0.0000000e+00 
1.7468831e-03 4.7504652e-02 0.0000000e+00 
-8.1736867e-04 4.7318088e-02 0.0000000e+00 
-3.3834274e-03 4.7152677e-02 0.0000000e+00 
-5.9531498e-03 4.7008277e-02 0.0000000e+00 
1.6383671e-03 5.0997708e-02 0.0000000e+00 
-1.0054488e-03 5.0801057e-02 0.0000000e+00 
-3.6511080e-03 5.0625189e-02 0.0000000e+00 
-6.3004656e-03 5.0469949e-02 0.0000000e+00 
1.5136636e-03 5.4596130e-02 0.0000000e+00 
-1.2082848e-03 5.4389266e-02 0.0000000e+00 
-3.9321088e-03 5.4202812e-02 0.0000000e+00 
-6.6596614e-03 5.4036605e-02 0.0000000e+00 
1.3726159e-03 5.8297980e-02 0.0000000e+00 
-1.4260353e-03 5.8080790e-02 0.0000000e+00 
-4.2265902e-03 5.7883639e-02 0.0000000e+00 
-7.0308994e-03 5.7706355e-02 0.0000000e+00 
1.2150897e-03 6.2101324e-02 0.0000000e+00 
-1.6588365e-03 6.1873712e-02 0.0000000e+00 
-4.5346908e-03 6.1665769e-02 0.0000000e+00 
-7.4143205e-03 6.1477312e-02 0.0000000e+00 
1.0409727e-03 6.6004229e-02 0.0000000e+00 
-1.9068035e-03 6.5766116e-02 0.0000000e+00 
-4.8565281e-03 6.5547301e-02 0.0000000e+00 
-7.8100448e-03 6.5347594e-02 0.0000000e+00 
8.5017405e-04 7.0004768e-02 0.0000000e+00 
-2.1700299e-03 6.9756088e-02 0.0000000e+00 
-5.1921990e-03 6.9526339e-02 0.0000000e+00 
-8.2181728e-03 6.9315317e-02 0.0000000e+00 
6.4262400e-04 7.4101020e-02 0.0000000e+00 
-2.4485892e-03 7.3841724e-02 0.0000000e+00 
-5.5417805e-03 7.3600990e-02 0.0000000e+00 
-8.6387848e-03 7.3378606e-02 0.0000000e+00 
4.1827301e-04 7.8291067e-02 0.0000000e+00 
-2.7425346e-03 7.8021120e-02 0.0000000e+00 
-5.9053297e-03 7.7769367e-02 0.0000000e+00 
-9.0719423e-03 7.7535588e-02 0.0000000e+00 
1.7709126e-04 8.2573001e-02 0.0000000e+00 
-3.0518999e-03 8.2292381e-02 0.0000000e+00 
-6.2828850e-03 8.2029589e-02 0.0000000e+00 
-9.5176880e-03 8.1784397e-02 0.0000000e+00 
-8.0930523e-05 8.6944917e-02 0.0000000e+00 
-3.3767000e-03 8.6653616e-02 0.0000000e+00 
-6.6744662e-03 8.6379779e-02 0.0000000e+00 
-9.9760470e-03 8.6123168e-02 0.0000000e+00 
-3.5578424e-04 9.1404920e-02 0.0000000e+00 
-3.7169316e-03 9.1102944e-02 0.0000000e+00 
-7.0800752e-03 9.0818069e-02 0.0000000e+00 
-1.0447026e-02 9.0550048e-02 0.0000000e+00 
-6.4744333e-04 9.5951121e-02 0.0000000e+00 
-4.0725736e-03 9.5638490e-02 0.0000000e+00 
-7.4996963e-03 9.5342596e-02 0.0000000e+00 
-1.0930616e-02 9.5063187e-02 0.0000000e+00 
-9.5586350e-04 1.0058164e-01 0.0000000e+00 
-4.4435875e-03 1.0025838e-01 0.0000000e+00 
-7.9332968e-03 9.9951505e-02 0.0000000e+00 
-1.1426789e-02 9.9660743e-02 0.0000000e+00 
-1.2809845e-03 1.0529461e-01 0.0000000e+00 
-4.8299184e-03 1.0496077e-01 0.0000000e+00 
-8.3808277e-03 1.0464295e-01 0.0000000e+00 
-1.1935503e-02 1.0434088e-01 0.0000000e+00 
-1.6227284e-03 1.1008816e-01 0.0000000e+00 
-5.2314947e-03 1.0974379e-01 0.0000000e+00 
-8.8422240e-03 1.0941509e-01 0.0000000e+00 
-1.2456698e-02 1.0910177e-01 0.0000000e+00 
-1.9810011e-03 1.1496044e-01 0.0000000e+00 
-5.6482294e-03 1.1460562e-01 0.0000000e+00 
-9.3174055e-03 1.1426610e-01 0.0000000e+00 
-1.2990303e-02 1.1394160e-01 0.0000000e+00 
-2.3556933e-03 1.1990960e-01 0.0000000e+00 
-6.0800204e-03 1.1954440e-01 0.0000000e+00 
-9.8062772e-03 1.1919415e-01 0.0000000e+00 
-1.3536228e-02 1.1885855e-01 0.0000000e+00 
-2.7466808e-03 1.2493382e-01 0.0000000e+00 
-6.5267506e-03 1.2455833e-01 0.0000000e+00 
-1.0308730e-02 1.2419743e-01 0.0000000e+00 
-1.4094373e-02 1.2385083e-01 0.0000000e+00 
-3.1538248e-03 1.3003128e-01 0.0000000e+00 
-6.9882894e-03 1.2964559e-01 0.0000000e+00 
-1.0824640e-02 1.2927414e-01 0.0000000e+00 
-1.4664623e-02 1.2891664e-01 0.0000000e+00 
-3.5769729e-03 1.3520015e-01 0.0000000e+00 
-7.4644923e-03 1.3480437e-01 0.0000000e+00 
-1.1353873e-02 1.3442249e-01 0.0000000e+00 
-1.5246850e-02 1.3405420e-01 0.0000000e+00 
-4.0159590e-03 1.4043865e-01 0.0000000e+00 
-7.9552021e-03 1.4003290e-01 0.0000000e+00 
-1.1896280e-02 1.3964070e-01 0.0000000e+00 
-1.5840916e-02 1.3926174e-01 0.0000000e+00 
-4.4706044e-03 1.4574499e-01 0.0000000e+00 
-8.4602494e-03 1.4532939e-01 0.0000000e+00 
-1.2451700e-02 1.4492700e-01 0.0000000e+00 
-1.6446668e-02 1.4453750e-01 0.0000000e+00 
-4.9407184e-03 1.5111739e-01 0.0000000e+00 
-8.9794528e-03 1.5069208e-01 0.0000000e+00 
-1.3019962e-02 1.5027964e-01 0.0000000e+00 
-1.7063945e-02 1.4987974e-01 0.0000000e+00 
-5.4260989e-03 1.5655410e-01 0.0000000e+00 
-9.5126201e-03 1.5611922e-01 0.0000000e+00 
-1.3600883e-02 1.5569687e-01 0.0000000e+00 
-1.7692575e-02 1.5528672e-01 0.0000000e+00 
-5.9265327e-03 1.6205337e-01 0.0000000e+00 
-1.0059548e-02 1.6160907e-01 0.0000000e+00 
-1.4194271e-02 1.6117696e-01 0.0000000e+00 
-1.8332375e-02 1.6075672e-01 0.0000000e+00 
-6.4417967e-03 1.6761348e-01 0.0000000e+00 
-1.0620024e-02 1.6715991e-01 0.0000000e+00 
-1.4799924e-02 1.6671820e-01 0.0000000e+00 
-1.8983154e-02 1.6628802e-01 0.0000000e+00 
-6.9716564e-03 1.7323270e-01 0.0000000e+00 
-1.1193826e-02 1.7277003e-01 0.0000000e+00 
-1.5417629e-02 1.7231889e-01 0.0000000e+00 
-1.9644713e-02 1.7187894e-01 0.0000000e+00 
-7.5158699e-03 1.7890934e-01 0.0000000e+00 
-1.1780722e-02 1.7843774e-01 0.0000000e+00 
-1.6047168e-02 1.7797734e-01 0.0000000e+00 
-2.0316842e-02 1.7752780e-01 0.0000000e+00 
-8.0741858e-03 1.8464172e-01 0.0000000e+00 
-1.2380472e-02 1.8416136e-01 0.0000000e+00 
-1.6688313e-02 1.8369188e-01 0.0000000e+00 
-2.0999325e-02 1.8323293e-01 0.0000000e+00 
-8.6463448e-03 1.9042817e-01 0.0000000e+00 
-1.2992829e-02 1.8993923e-01 0.0000000e+00 
-1.7340827e-02 1.8946085e-01 0.0000000e+00 
-2.1691939e-02 1.8899268e-01 0.0000000e+00 
-9.2320811e-03 1.9626703e-01 0.0000000e+00 
-1.3617539e-02 1.9576971e-01 0.0000000e+00 
-1.8004468e-02 1.9528261e-01 0.0000000e+00 
-2.2394453e-02 1.9480541e-01 0.0000000e+00 
-9.8311205e-03 2.0215668e-01 0.0000000e+00 
-1.4254340e-02 2.0165116e-01 0.0000000e+00 
-1.8678987e-02 2.0115555e-01 0.0000000e+00 
-2.3106631e-02 2.0066951e-01 0.0000000e+00 
-1.0443183e-02 2.0809550e-01 0.0000000e+00 
-1.4902965e-02 2.0758197e-01 0.0000000e+00 
-1.9364130e-02 2.0707804e-01 0.0000000e+00 
-2.3828230e-02 2.0658338e-01 0.0000000e+00 
-1.1067981e-02 2.1408189e-01 0.0000000e+00 
-1.5563139e-02 2.1356055e-01 0.0000000e+00 
-2.0059636e-02 2.1304851e-01 0.0000000e+00 
-2.4559006e-02 2.1254542e-01 0.0000000e+00 
-1.1705223e-02 2.2011427e-01 0.0000000e+00 
-1.6234585e-02 2.1958533e-01 0.0000000e+00 
-2.0765240e-02 2.1906537e-01 0.0000000e+00 
-2.5298705e-02 2.1855406e-01 0.0000000e+00 
-1.2354611e-02 2.2619108e-01 0.0000000e+00 
-1.6917019e-02 2.2565474e-01 0.0000000e+00 
-2.1480673e-02 2.2512708e-01 0.0000000e+00 
-2.6047072e-02 2.2460777e-01 0.0000000e+00 
-1.3015844e-02 2.3231079e-01 0.0000000e+00 
-1.7610153e-02 2.3176725e-01 0.0000000e+00 
-2.2205662e-02 2.3123210e-01 0.0000000e+00 
-2.6803851e-02 2.3070500e-01 0.0000000e+00 
-1.3688616e-02 2.3847186e-01 0.0000000e+00 
-1.8313697e-02 2.3792134e-01 0.0000000e+00 
-2.2939930e-02 2.3737891e-01 0.0000000e+00 
-2.7568778e-02 2.3684424e-01 0.0000000e+00 
-1.4372617e-02 2.4467280e-01 0.0000000e+00 
-1.9027356e-02 2.4411551e-01 0.0000000e+00 
-2.3683200e-02 2.4356602e-01 0.0000000e+00 
-2.8341591e-02 2.4302400e-01 0.0000000e+00 
-1.5067536e-02 2.5091214e-01 0.0000000e+00 
-1.9750834e-02 2.5034829e-01 0.0000000e+00 
-2.4435190e-02 2.4979195e-01 0.0000000e+00 
-2.9122026e-02 2.4924280e-01 0.0000000e+00 
-1.5773058e-02 2.5718841e-01 0.0000000e+00 
-2.0483832e-02 2.5661822e-01 0.0000000e+00 
-2.5195618e-02 2.5605525e-01 0.0000000e+00 
-2.9909816e-02 2.5549919e-01 0.0000000e+00 
-1.6488866e-02 2.6350018e-01 0.0000000e+00 
-2.1226051e-02 2.6292386e-01 0.0000000e+00 
-2.5964201e-02 2.6235449e-01 0.0000000e+00 
-3.0704694e-02 2.6179174e-01 0.0000000e+00 
-1.7214642e-02 2.6984604e-01 0.0000000e+00 
-2.1977189e-02 2.6926380e-01 0.0000000e+00 
-2.6740653e-02 2.6868824e-01 0.0000000e+00 
-3.1506392e-02 2.6811903e-01 0.0000000e+00 
-1.7950070e-02 2.7622460e-01 0.0000000e+00 
-2.2736945e-02 2.7563666e-01 0.0000000e+00 
-2.7524691e-02 2.7505513e-01 0.0000000e+00 
-3.2314642e-02 2.7447969e-01 0.0000000e+00 
-1.8694829e-02 2.8263449e-01 0.0000000e+00 
-2.3505017e-02 2.8204107e-01 0.0000000e+00 
-2.8316030e-02 2.8145379e-01 0.0000000e+00 
-3.3129179e-02 2.8087233e-01 0.0000000e+00 
-1.9448600e-02 2.8907438e-01 0.0000000e+00 
-2.4281104e-02 2.8847569e-01 0.0000000e+00 
-2.9114386e-02 2.8788288e-01 0.0000000e+00 
-3.3949736e-02 2.8729563e-01 0.0000000e+00 
-2.0211065e-02 2.9554294e-01 0.0000000e+00 
-2.5064905e-02 2.9493919e-01 0.0000000e+00 
-2.9919479e-02 2.9434107e-01 0.0000000e+00 
-3.4776051e-02 2.9374826e-01 0.0000000e+00 
-2.0981906e-02 3.0203889e-01 0.0000000e+00 
-2.5856121e-02 3.0143030e-01 0.0000000e+00 
-3.0731026e-02 3.0082707e-01 0.0000000e+00 
-3.5607861e-02 3.0022892e-01 0.0000000e+00 
-2.1760805e-02 3.0856095e-01 0.0000000e+00 
-2.6654455e-02 3.0794773e-01 0.0000000e+00 
-3.1548751e-02 3.0733962e-01 0.0000000e+00 
-3.6444908e-02 3.0673634e-01 0.0000000e+00 
-2.2547449e-02 3.1510790e-01 0.0000000e+00 
-2.7459611e-02 3.1449025e-01 0.0000000e+00 
-3.2372378e-02 3.1387747e-01 0.0000000e+00 
-3.7286935e-02 3.1326929e-01 0.0000000e+00 
-2.3341523e-02 3.2167852e-01 0.0000000e+00 
-2.8271296e-02 3.2105664e-01 0.0000000e+00 
-3.3201633e-02 3.2043941e-01 0.0000000e+00 
-3.8133692e-02 3.1982653e-01 0.0000000e+00 
-2.4142719e-02 3.2827162e-01 0.0000000e+00 
-2.9089222e-02 3.2764572e-01 0.0000000e+00 
-3.4036249e-02 3.2702424e-01 0.0000000e+00 
-3.8984931e-02 3.2640688e-01 0.0000000e+00 
-2.4950728e-02 3.3488605e-01 0.0000000e+00 
-2.9913102e-02 3.3425633e-01 0.0000000e+00 
-3.4875961e-02 3.3363080e-01 0.0000000e+00 
-3.9840407e-02 3.3300918e-01 0.0000000e+00 
-2.5765247e-02 3.4152069e-01 0.0000000e+00 
-3.0742655e-02 3.4088734e-01 0.0000000e+00 
-3.5720509e-02 3.4025796e-01 0.0000000e+00 
-4.0699884e-02 3.3963228e-01 0.0000000e+00 
-2.6585978e-02 3.4817443e-01 0.0000000e+00 
-3.1577603e-02 3.4753765e-01 0.0000000e+00 
-3.6569638e-02 3.4690462e-01 0.0000000e+00 
-4.1563127e-02 3.4627509e-01 0.0000000e+00 
-2.7412626e-02 3.5484622e-01 0.0000000e+00 
-3.2417674e-02 3.5420619e-01 0.0000000e+00 
-3.7423098e-02 3.5356971e-01 0.0000000e+00 
-4.2429909e-02 3.5293651e-01 0.0000000e+00 
-2.8244899e-02 3.6153501e-01 0.0000000e+00 
-3.3262601e-02 3.6089192e-01 0.0000000e+00 
-3.8280644e-02 3.6025217e-01 0.0000000e+00 
-4.3300010e-02 3.5961552e-01 0.0000000e+00 
-2.9082513e-02 3.6823980e-01 0.0000000e+00 
-3.4112121e-02 3.6759383e-01 0.0000000e+00 
-3.9142038e-02 3.6695100e-01 0.0000000e+00 
-4.4173215e-02 3.6631108e-01 0.0000000e+00 
-2.9925189e-02 3.7495963e-01 0.0000000e+00 
-3.4965980e-02 3.7431094e-01 0.0000000e+00 
-4.0007048e-02 3.7366522e-01 0.0000000e+00 
-4.5049314e-02 3.7302221e-01 0.0000000e+00 
-3.0772654e-02 3.8169354e-01 0.0000000e+00 
-3.5823928e-02 3.8104232e-01 0.0000000e+00 
-4.0875449e-02 3.8039387e-01 0.0000000e+00 
-4.5928107e-02 3.7974796e-01 0.0000000e+00 
-3.1624641e-02 3.8844064e-01 0.0000000e+00 
-3.6685721e-02 3.8778704e-01 0.0000000e+00 
-4.1747021e-02 3.8713603e-01 0.0000000e+00 
-4.6809398e-02 3.8648740e-01 0.0000000e+00 
-3.2480890e-02 3.9520004e-01 0.0000000e+00 
-3.7551125e-02 3.9454422e-01 0.0000000e+00 
-4.2621553e-02 3.9389083e-01 0.0000000e+00 
-4.7692999e-02 3.9323964e-01 0.0000000e+00 
-3.3341146e-02 4.0197091e-01 0.0000000e+00 
-3.8419909e-02 4.0131302e-01 0.0000000e+00 
-4.3498839e-02 4.0065740e-01 0.0000000e+00 
-4.8578731e-02 4.0000383e-01 0.0000000e+00 
-3.4205164e-02 4.0875243e-01 0.0000000e+00 
-3.9291852e-02 4.0809262e-01 0.0000000e+00 
-4.4378684e-02 4.0743492e-01 0.0000000e+00 
-4.9466422e-02 4.0677913e-01 0.0000000e+00 
-3.5072705e-02 4.1554382e-01 0.0000000e+00 
-4.0166739e-02 4.1488224e-01 0.0000000e+00 
-4.5260897e-02 4.1422262e-01 0.0000000e+00 
-5.0355906e-02 4.1356475e-01 0.0000000e+00 
-3.5943536e-02 4.2234435e-01 0.0000000e+00 
-4.1044365e-02 4.2168113e-01 0.0000000e+00 
-4.6145298e-02 4.2101972e-01 0.0000000e+00 
-5.1247027e-02 4.2035993e-01 0.0000000e+00 
-3.6817436e-02 4.2915331e-01 0.0000000e+00 
-4.1924531e-02 4.2848858e-01 0.0000000e+00 
-4.7031711e-02 4.2782552e-01 0.0000000e+00 
-5.2139637e-02 4.2716395e-01 0.0000000e+00 
-3.7694187e-02 4.3597001e-01 0.0000000e+00 
-4.2807046e-02 4.3530390e-01 0.0000000e+00 
-4.7919972e-02 4.3463932e-01 0.0000000e+00 
-5.3033594e-02 4.3397610e-01 0.0000000e+00 
-3.8573585e-02 4.4279381e-01 0.0000000e+00 
-4.3691728e-02 4.4212644e-01 0.0000000e+00 
-4.8809922e-02 4.4146046e-01 0.0000000e+00 
-5.3928765e-02 4.4079574e-01 0.0000000e+00 
-3.9455429e-02 4.4962412e-01 0.0000000e+00 
-4.4578402e-02 4.4895558e-01 0.0000000e+00 
-4.9701412e-02 4.4828834e-01 0.0000000e+00 
-5.4825025e-02 4.4762222e-01 0.0000000e+00 
-4.0339529e-02 4.5646034e-01 0.0000000e+00 
-4.5466903e-02 4.5579075e-01 0.0000000e+00 
-5.0594301e-02 4.5512234e-01 0.0000000e+00 
-5.5722257e-02 4.5445496e-01 0.0000000e+00 
-4.1225704e-02 4.6330193e-01 0.0000000e+00 
-4.6357073e-02 4.6263140e-01 0.0000000e+00 
-5.1488454e-02 4.6196193e-01 0.0000000e+00 
-5.6620351e-02 4.6129339e-01 0.0000000e+00 
-4.2113781e-02 4.7014838e-01 0.0000000e+00 
-4.7248763e-02 4.6947699e-01 0.0000000e+00 
-5.2383746e-02 4.6880656e-01 0.0000000e+00 
-5.7519206e-02 4.6813698e-01 0.0000000e+00 
-4.3003596e-02 4.7699920e-01 0.0000000e+00 
-4.8141831e-02 4.7632705e-01 0.0000000e+00 
-5.3280059e-02 4.7565576e-01 0.0000000e+00 
-5.8418724e-02 4.7498522e-01 0.0000000e+00 
-4.3894993e-02 4.8385395e-01 0.0000000e+00 
-4.9036144e-02 4.8318111e-01 0.0000000e+00 
-5.4177282e-02 4.8250905e-01 0.0000000e+00 
-5.9318819e-02 4.8183766e-01 0.0000000e+00 
-4.4787823e-02 4.9071220e-01 0.0000000e+00 
-4.9931577e-02 4.9003875e-01 0.0000000e+00 
-5.5075311e-02 4.8936600e-01 0.0000000e+00 
-6.0219409e-02 4.8869384e-01 0.0000000e+00 
-4.5681948e-02 4.9757355e-01 0.0000000e+00 
-5.0828013e-02 4.9689957e-01 0.0000000e+00 
-5.5974052e-02 4.9622620e-01 0.0000000e+00 
-6.1120422e-02 4.9555336e-01 0.0000000e+00 
-4.6577236e-02 5.0443765e-01 0.0000000e+00 
-5.1725341e-02 5.0376319e-01 0.0000000e+00 
-5.6873416e-02 5.0308929e-01 0.0000000e+00 
-6.2021790e-02 5.0241584e-01 0.0000000e+00 
-4.7473564e-02 5.1130415e-01 0.0000000e+00 
-5.2623460e-02 5.1062929e-01 0.0000000e+00 
-5.7773322e-02 5.0995490e-01 0.0000000e+00 
-6.2923453e-02 5.0928092e-01 0.0000000e+00 
-4.8370819e-02 5.1817275e-01 0.0000000e+00 
-5.3522275e-02 5.1749753e-01 0.0000000e+00 
-5.8673696e-02 5.1682273e-01 0.0000000e+00 
-6.3825357e-02 5.1614828e-01 0.0000000e+00 
-4.9268895e-02 5.2504317e-01 0.0000000e+00 
-5.4421701e-02 5.2436765e-01 0.0000000e+00 
-5.9574470e-02 5.2369249e-01 0.0000000e+00 
-6.4727454e-02 5.2301762e-01 0.0000000e+00 
-5.0167693e-02 5.3191515e-01 0.0000000e+00 
-5.5321657e-02 5.3123937e-01 0.0000000e+00 
-6.0475582e-02 5.3056390e-01 0.0000000e+00 
-6.5629698e-02 5.2988868e-01 0.0000000e+00 
-5.1067122e-02 5.3878844e-01 0.0000000e+00 
-5.6222069e-02 5.3811245e-01 0.0000000e+00 
-6.1376976e-02 5.3743672e-01 0.0000000e+00 
-6.6532052e-02 5.3676119e-01 0.0000000e+00 
-5.1967100e-02 5.4566285e-01 0.0000000e+00 
-5.7122871e-02 5.4498667e-01 0.0000000e+00 
-6.2278602e-02 5.4431072e-01 0.0000000e+00 
-6.7434481e-02 5.4363494e-01 0.0000000e+00 
-5.2867549e-02 5.5253817e-01 0.0000000e+00 
-5.8024001e-02 5.5186185e-01 0.0000000e+00 
-6.3180415e-02 5.5118571e-01 0.0000000e+00 
-6.8336958e-02 5.5050972e-01 0.0000000e+00 
-5.3768400e-02 5.5941423e-01 0.0000000e+00 
-5.8925406e-02 5.5873780e-01 0.0000000e+00 
-6.4082375e-02 5.5806151e-01 0.0000000e+00 
-6.9239455e-02 5.5738534e-01 0.0000000e+00 
-5.4669589e-02 5.6629089e-01 0.0000000e+00 
-5.9827036e-02 5.6561437e-01 0.0000000e+00 