# vtk DataFile Version 4.0
vtk output
ASCII
DATASET UNSTRUCTURED_GRID
POINTS 604 float
5.5000000e+00 5.9700000e+00 0.0000000e+00 
5.5000000e+00 5.9900000e+00 0.0000000e+00 
5.5266667e+00 5.9700000e+00 0.0000000e+00 
5.5266667e+00 5.9900000e+00 0.0000000e+00 
5.5000000e+00 6.0100000e+00 0.0000000e+00 
5.5266667e+00 6.0100000e+00 0.0000000e+00 
5.5533333e+00 5.9700000e+00 0.0000000e+00 
5.5533333e+00 5.9900000e+00 0.0000000e+00 
5.5000000e+00 6.0300000e+00 0.0000000e+00 
5.5266667e+00 6.0300000e+00 0.0000000e+00 
5.5533333e+00 6.0100000e+00 0.0000000e+00 
5.5800000e+00 5.9700000e+00 0.0000000e+00 
5.5533333e+00 6.0300000e+00 0.0000000e+00 
5.5800000e+00 5.9900000e+00 0.0000000e+00 
5.5800000e+00 6.0100000e+00 0.0000000e+00 
5.5800000e+00 6.0300000e+00 0.0000000e+00 
5.6066667e+00 5.9700000e+00 0.0000000e+00 
5.6066667e+00 5.9900000e+00 0.0000000e+00 
5.6066667e+00 6.0100000e+00 0.0000000e+00 
5.6066667e+00 6.0300000e+00 0.0000000e+00 
5.6333333e+00 5.9700000e+00 0.0000000e+00 
5.6333333e+00 5.9900000e+00 0.0000000e+00 
5.6333333e+00 6.0100000e+00 0.0000000e+00 
5.6333333e+00 6.0300000e+00 0.0000000e+00 
5.6600000e+00 5.9700000e+00 0.0000000e+00 
5.6600000e+00 5.9900000e+00 0.0000000e+00 
5.6600000e+00 6.0100000e+00 0.0000000e+00 
5.6600000e+00 6.0300000e+00 0.0000000e+00 
5.6866667e+00 5.9700000e+00 0.0000000e+00 
5.6866667e+00 5.9900000e+00 0.0000000e+00 
5.6866667e+00 6.0100000e+00 0.0000000e+00 
5.6866667e+00 6.0300000e+00 0.0000000e+00 
5.7133333e+00 5.9700000e+00 0.0000000e+00 
5.7133333e+00 5.9900000e+00 0.0000000e+00 
5.7133333e+00 6.0100000e+00 0.0000000e+00 
5.7133333e+00 6.0300000e+00 0.0000000e+00 
5.7400000e+00 5.9700000e+00 0.0000000e+00 
5.7400000e+00 5.9900000e+00 0.0000000e+00 
5.7400000e+00 6.0100000e+00 0.0000000e+00 
5.7400000e+00 6.0300000e+00 0.0000000e+00 
5.7666667e+00 5.9700000e+00 0.0000000e+00 
5.7666667e+00 5.9900000e+00 0.0000000e+00 
5.7666667e+00 6.0100000e+00 0.0000000e+00 
5.7666667e+00 6.0300000e+00 0.0000000e+00 
5.7933333e+00 5.9700000e+00 0.0000000e+00 
5.7933333e+00 5.9900000e+00 0.0000000e+00 
5.7933333e+00 6.0100000e+00 0.0000000e+00 
5.7933333e+00 6.0300000e+00 0.0000000e+00 
5.8200000e+00 5.9700000e+00 0.0000000e+00 
5.8200000e+00 5.9900000e+00 0.0000000e+00 
5.8200000e+00 6.0100000e+00 0.0000000e+00 
5.8200000e+00 6.0300000e+00 0.0000000e+00 
5.8466667e+00 5.9700000e+00 0.0000000e+00 
5.8466667e+00 5.9900000e+00 0.0000000e+00 
5.8466667e+00 6.0100000e+00 0.0000000e+00 
5.8466667e+00 6.0300000e+00 0.0000000e+00 
5.8733333e+00 5.9700000e+00 0.0000000e+00 
5.8733333e+00 5.9900000e+00 0.0000000e+00 
5.8733333e+00 6.0100000e+00 0.0000000e+00 
5.8733333e+00 6.0300000e+00 0.0000000e+00 
5.9000000e+00 5.9700000e+00 0.0000000e+00 
5.9000000e+00 5.9900000e+00 0.0000000e+00 
5.9000000e+00 6.0100000e+00 0.0000000e+00 
5.9000000e+00 6.0300000e+00 0.0000000e+00 
5.9266667e+00 5.9700000e+00 0.0000000e+00 
5.9266667e+00 5.9900000e+00 0.0000000e+00 
5.9266667e+00 6.0100000e+00 0.0000000e+00 
5.9266667e+00 6.0300000e+00 0.0000000e+00 
5.9533333e+00 5.9700000e+00 0.0000000e+00 
5.9533333e+00 5.9900000e+00 0.0000000e+00 
5.9533333e+00 6.0100000e+00 0.0000000e+00 
5.9533333e+00 6.0300000e+00 0.0000000e+00 
5.9800000e+00 5.9700000e+00 0.0000000e+00 
5.9800000e+00 5.9900000e+00 0.0000000e+00 
5.9800000e+00 6.0100000e+00 0.0000000e+00 
5.9800000e+00 6.0300000e+00 0.0000000e+00 
6.0066667e+00 5.9700000e+00 0.0000000e+00 
6.0066667e+00 5.9900000e+00 0.0000000e+00 
6.0066667e+00 6.0100000e+00 0.0000000e+00 
6.0066667e+00 6.0300000e+00 0.0000000e+00 
6.0333333e+00 5.9700000e+00 0.0000000e+00 
6.0333333e+00 5.9900000e+00 0.0000000e+00 
6.0333333e+00 6.0100000e+00 0.0000000e+00 
6.0333333e+00 6.0300000e+00 0.0000000e+00 
6.0600000e+00 5.9700000e+00 0.0000000e+00 
6.0600000e+00 5.9900000e+00 0.0000000e+00 
6.0600000e+00 6.0100000e+00 0.0000000e+00 
6.0600000e+00 6.0300000e+00 0.0000000e+00 
6.0866667e+00 5.9700000e+00 0.0000000e+00 
6.0866667e+00 5.9900000e+00 0.0000000e+00 
6.0866667e+00 6.0100000e+00 0.0000000e+00 
6.0866667e+00 6.0300000e+00 0.0000000e+00 
6.1133333e+00 5.9700000e+00 0.0000000e+00 
6.1133333e+00 5.9900000e+00 0.0000000e+00 
6.1133333e+00 6.0100000e+00 0.0000000e+00 
6.1133333e+00 6.0300000e+00 0.0000000e+00 
6.1400000e+00 5.9700000e+00 0.0000000e+00 
6.1400000e+00 5.9900000e+00 0.0000000e+00 
6.1400000e+00 6.0100000e+00 0.0000000e+00 
6.1400000e+00 6.0300000e+00 0.0000000e+00 
6.1666667e+00 5.9700000e+00 0.0000000e+00 
6.1666667e+00 5.9900000e+00 0.0000000e+00 
6.1666667e+00 6.0100000e+00 0.0000000e+00 
6.1666667e+00 6.0300000e+00 0.0000000e+00 
6.1933333e+00 5.9700000e+00 0.0000000e+00 
6.1933333e+00 5.9900000e+00 0.0000000e+00 
6.1933333e+00 6.0100000e+00 0.0000000e+00 
6.1933333e+00 6.0300000e+00 0.0000000e+00 
6.2200000e+00 5.9700000e+00 0.0000000e+00 
6.2200000e+00 5.9900000e+00 0.0000000e+00 
6.2200000e+00 6.0100000e+00 0.0000000e+00 
6.2200000e+00 6.0300000e+00 0.0000000e+00 
6.2466667e+00 5.9700000e+00 0.0000000e+00 
6.2466667e+00 5.9900000e+00 0.0000000e+00 
6.2466667e+00 6.0100000e+00 0.0000000e+00 
6.2466667e+00 6.0300000e+00 0.0000000e+00 
6.2733333e+00 5.9700000e+00 0.0000000e+00 
6.2733333e+00 5.9900000e+00 0.0000000e+00 
6.2733333e+00 6.0100000e+00 0.0000000e+00 
6.2733333e+00 6.0300000e+00 0.0000000e+00 
6.3000000e+00 5.9700000e+00 0.0000000e+00 
6.3000000e+00 5.9900000e+00 0.0000000e+00 
6.3000000e+00 6.0100000e+00 0.0000000e+00 
6.3000000e+00 6.0300000e+00 0.0000000e+00 
6.3266667e+00 5.9700000e+00 0.0000000e+00 
6.3266667e+00 5.9900000e+00 0.0000000e+00 
6.3266667e+00 6.0100000e+00 0.0000000e+00 
6.3266667e+00 6.0300000e+00 0.0000000e+00 
6.3533333e+00 5.9700000e+00 0.0000000e+00 
6.3533333e+00 5.9900000e+00 0.0000000e+00 
6.3533333e+00 6.0100000e+00 0.0000000e+00 
6.3533333e+00 6.0300000e+00 0.0000000e+00 
6.3800000e+00 5.9700000e+00 0.0000000e+00 
6.3800000e+00 5.9900000e+00 0.0000000e+00 
6.3800000e+00 6.0100000e+00 0.0000000e+00 
6.3800000e+00 6.0300000e+00 0.0000000e+00 
6.4066667e+00 5.9700000e+00 0.0000000e+00 
6.4066667e+00 5.9900000e+00 0.0000000e+00 
6.4066667e+00 6.0100000e+00 0.0000000e+00 
6.4066667e+00 6.0300000e+00 0.0000000e+00 
6.4333333e+00 5.9700000e+00 0.0000000e+00 
6.4333333e+00 5.9900000e+00 0.0000000e+00 
6.4333333e+00 6.0100000e+00 0.0000000e+00 
6.4333333e+00 6.0300000e+00 0.0000000e+00 
6.4600000e+00 5.9700000e+00 0.0000000e+00 
6.4600000e+00 5.9900000e+00 0.0000000e+00 
6.4600000e+00 6.0100000e+00 0.0000000e+00 
6.4600000e+00 6.0300000e+00 0.0000000e+00 
6.4866667e+00 5.9700000e+00 0.0000000e+00 
6.4866667e+00 5.9900000e+00 0.0000000e+00 
6.4866667e+00 6.0100000e+00 0.0000000e+00 
6.4866667e+00 6.0300000e+00 0.0000000e+00 
6.5133333e+00 5.9700000e+00 0.0000000e+00 
6.5133333e+00 5.9900000e+00 0.0000000e+00 
6.5133333e+00 6.0100000e+00 0.0000000e+00 
6.5133333e+00 6.0300000e+00 0.0000000e+00 
6.5400000e+00 5.9700000e+00 0.0000000e+00 
6.5400000e+00 5.9900000e+00 0.0000000e+00 
6.5400000e+00 6.0100000e+00 0.0000000e+00 
6.5400000e+00 6.0300000e+00 0.0000000e+00 
6.5666667e+00 5.9700000e+00 0.0000000e+00 
6.5666667e+00 5.9900000e+00 0.0000000e+00 
6.5666667e+00 6.0100000e+00 0.0000000e+00 
6.5666667e+00 6.0300000e+00 0.0000000e+00 
6.5933333e+00 5.9700000e+00 0.0000000e+00 
6.5933333e+00 5.9900000e+00 0.0000000e+00 
6.5933333e+00 6.0100000e+00 0.0000000e+00 
6.5933333e+00 6.0300000e+00 0.0000000e+00 
6.6200000e+00 5.9700000e+00 0.0000000e+00 
6.6200000e+00 5.9900000e+00 0.0000000e+00 
6.6200000e+00 6.0100000e+00 0.0000000e+00 
6.6200000e+00 6.0300000e+00 0.0000000e+00 
6.6466667e+00 5.9700000e+00 0.0000000e+00 
6.6466667e+00 5.9900000e+00 0.0000000e+00 
6.6466667e+00 6.0100000e+00 0.0000000e+00 
6.6466667e+00 6.0300000e+00 0.0000000e+00 
6.6733333e+00 5.9700000e+00 0.0000000e+00 
6.6733333e+00 5.9900000e+00 0.0000000e+00 
6.6733333e+00 6.0100000e+00 0.0000000e+00 
6.6733333e+00 6.0300000e+00 0.0000000e+00 
6.7000000e+00 5.9700000e+00 0.0000000e+00 
6.7000000e+00 5.9900000e+00 0.0000000e+00 
6.7000000e+00 6.0100000e+00 0.0000000e+00 
6.7000000e+00 6.0300000e+00 0.0000000e+00 
6.7266667e+00 5.9700000e+00 0.0000000e+00 
6.7266667e+00 5.9900000e+00 0.0000000e+00 
6.7266667e+00 6.0100000e+00 0.0000000e+00 
6.7266667e+00 6.0300000e+00 0.0000000e+00 
6.7533333e+00 5.9700000e+00 0.0000000e+00 
6.7533333e+00 5.9900000e+00 0.0000000e+00 
6.7533333e+00 6.0100000e+00 0.0000000e+00 
6.7533333e+00 6.0300000e+00 0.0000000e+00 
6.7800000e+00 5.9700000e+00 0.0000000e+00 
6.7800000e+00 5.9900000e+00 0.0000000e+00 
6.7800000e+00 6.0100000e+00 0.0000000e+00 
6.7800000e+00 6.0300000e+00 0.0000000e+00 
6.8066667e+00 5.9700000e+00 0.0000000e+00 
6.8066667e+00 5.9900000e+00 0.0000000e+00 
6.8066667e+00 6.0100000e+00 0.0000000e+00 
6.8066667e+00 6.0300000e+00 0.0000000e+00 
6.8333333e+00 5.9700000e+00 0.0000000e+00 
6.8333333e+00 5.9900000e+00 0.0000000e+00 
6.8333333e+00 6.0100000e+00 0.0000000e+00 
6.8333333e+00 6.0300000e+00 0.0000000e+00 
6.8600000e+00 5.9700000e+00 0.0000000e+00 
6.8600000e+00 5.9900000e+00 0.0000000e+00 
6.8600000e+00 6.0100000e+00 0.0000000e+00 
6.8600000e+00 6.0300000e+00 0.0000000e+00 
6.8866667e+00 5.9700000e+00 0.0000000e+00 
6.8866667e+00 5.9900000e+00 0.0000000e+00 
6.8866667e+00 6.0100000e+00 0.0000000e+00 
6.8866667e+00 6.0300000e+00 0.0000000e+00 
6.9133333e+00 5.9700000e+00 0.0000000e+00 
6.9133333e+00 5.9900000e+00 0.0000000e+00 
6.9133333e+00 6.0100000e+00 0.0000000e+00 
6.9133333e+00 6.0300000e+00 0.0000000e+00 
6.9400000e+00 5.9700000e+00 0.0000000e+00 
6.9400000e+00 5.9900000e+00 0.0000000e+00 
6.9400000e+00 6.0100000e+00 0.0000000e+00 
6.9400000e+00 6.0300000e+00 0.0000000e+00 
6.9666667e+00 5.9700000e+00 0.0000000e+00 
6.9666667e+00 5.9900000e+00 0.0000000e+00 
6.9666667e+00 6.0100000e+00 0.0000000e+00 
6.9666667e+00 6.0300000e+00 0.0000000e+00 
6.9933333e+00 5.9700000e+00 0.0000000e+00 
6.9933333e+00 5.9900000e+00 0.0000000e+00 
6.9933333e+00 6.0100000e+00 0.0000000e+00 
6.9933333e+00 6.0300000e+00 0.0000000e+00 
7.0200000e+00 5.9700000e+00 0.0000000e+00 
7.0200000e+00 5.9900000e+00 0.0000000e+00 
[...]
POINT_DATA 604
FIELD FieldData 2
DISPLACEMENT 3 604  float
0.0000000e+00 0.0000000e+00 0.0000000e+00 
0.0000000e+00 0.0000000e+00 0.0000000e+00 
-1.9598087e-04 -1.1698672e-04 0.0000000e+00 
-6.2789825e-05 -7.6557003e-05 0.0000000e+00 
0.0000000e+00 0.0000000e+00 0.0000000e+00 
6.1010449e-05 -7.7135201e-05 0.0000000e+00 
-3.9607193e-04 -3.7511666e-04 0.0000000e+00 
-1.3372391e-04 -3.4328960e-04 0.0000000e+00 
0.0000000e+00 0.0000000e+00 0.0000000e+00 
1.9385108e-04 -1.1855306e-04 0.0000000e+00 
1.2793743e-04 -3.4525262e-04 0.0000000e+00 
-5.9538469e-04 -8.1156523e-04 0.0000000e+00 
3.8940783e-04 -3.8076048e-04 0.0000000e+00 
-2.0244500e-04 -7.8166285e-04 0.0000000e+00 
1.8813766e-04 -7.8570784e-04 0.0000000e+00 
5.7970258e-04 -8.2350384e-04 0.0000000e+00 
-7.9443247e-04 -1.4177677e-03 0.0000000e+00 
-2.7387965e-04 -1.3914541e-03 0.0000000e+00 
2.4430363e-04 -1.3983837e-03 0.0000000e+00 
7.6309110e-04 -1.4384015e-03 0.0000000e+00 
-9.9442186e-04 -2.1913397e-03 0.0000000e+00 
-3.4847975e-04 -2.1692605e-03 0.0000000e+00 
2.9490085e-04 -2.1798215e-03 0.0000000e+00 
9.3870407e-04 -2.2228898e-03 0.0000000e+00 
-1.1963130e-03 -3.1292451e-03 0.0000000e+00 
-4.2727368e-04 -3.1121028e-03 0.0000000e+00 
3.3904121e-04 -3.1269919e-03 0.0000000e+00 
1.1055874e-03 -3.1738058e-03 0.0000000e+00 
-1.4010345e-03 -4.2285291e-03 0.0000000e+00 
-5.1116626e-04 -4.2169750e-03 0.0000000e+00 
3.7582372e-04 -4.2368494e-03 0.0000000e+00 
1.2628656e-03 -4.2880700e-03 0.0000000e+00 
-1.6094609e-03 -5.4862504e-03 0.0000000e+00 
-6.0101553e-04 -5.4808972e-03 0.0000000e+00 
4.0440831e-04 -5.5063743e-03 0.0000000e+00 
1.4097147e-03 -5.5626234e-03 0.0000000e+00 
-1.8224159e-03 -6.8994897e-03 0.0000000e+00 
-6.9762705e-04 -6.9009115e-03 0.0000000e+00 
4.2400660e-04 -6.9325705e-03 0.0000000e+00 
1.5453633e-03 -6.9944313e-03 0.0000000e+00 
-2.0406724e-03 -8.4653492e-03 0.0000000e+00 
-8.0175636e-04 -8.4740828e-03 0.0000000e+00 
4.3388092e-04 -8.5124656e-03 0.0000000e+00 
1.6690911e-03 -8.5804845e-03 0.0000000e+00 
-2.2649564e-03 -1.0180953e-02 0.0000000e+00 
-9.1411006e-04 -1.0197499e-02 0.0000000e+00 
4.3334254e-04 -1.0243112e-02 0.0000000e+00 
1.7802273e-03 -1.0317799e-02 0.0000000e+00 
-2.4959449e-03 -1.2043449e-02 0.0000000e+00 
-1.0353479e-03 -1.2068274e-02 0.0000000e+00 
4.2175031e-04 -1.2121587e-02 0.0000000e+00 
1.8781487e-03 -1.2203417e-02 0.0000000e+00 
-2.7342721e-03 -1.4050007e-02 0.0000000e+00 
-1.1660839e-03 -1.4083541e-02 0.0000000e+00 
3.9850898e-04 -1.4144992e-02 0.0000000e+00 
1.9622786e-03 -1.4234408e-02 0.0000000e+00 
-2.9805271e-03 -1.6197820e-02 0.0000000e+00 
-1.3068881e-03 -1.6240463e-02 0.0000000e+00 
3.6306788e-04 -1.6310457e-02 0.0000000e+00 
2.0320855e-03 -1.6407868e-02 0.0000000e+00 
-3.2352579e-03 -1.8484107e-02 0.0000000e+00 
-1.4582879e-03 -1.8536226e-02 0.0000000e+00 
3.1491921e-04 -1.8615135e-02 0.0000000e+00 
2.0870809e-03 -1.8720919e-02 0.0000000e+00 
-3.4989706e-03 -2.0906111e-02 0.0000000e+00 
-1.6207696e-03 -2.0968043e-02 0.0000000e+00 
2.5359672e-04 -2.1056210e-02 0.0000000e+00 
2.1268183e-03 -2.1170714e-02 0.0000000e+00 
-3.7721320e-03 -2.3461100e-02 0.0000000e+00 
-1.7947796e-03 -2.3533153e-02 0.0000000e+00 
1.7867421e-04 -2.3630891e-02 0.0000000e+00 
2.1508915e-03 -2.3754433e-02 0.0000000e+00 
-4.0551717e-03 -2.6146368e-02 0.0000000e+00 
-1.9807261e-03 -2.6228821e-02 0.0000000e+00 
8.9764154e-05 -2.6336414e-02 0.0000000e+00 
2.1589332e-03 -2.6469284e-02 0.0000000e+00 
-4.3484814e-03 -2.8959235e-02 0.0000000e+00 
-2.1789802e-03 -2.9052339e-02 0.0000000e+00 
-1.3483747e-05 -2.9170046e-02 0.0000000e+00 
2.1506139e-03 -2.9312506e-02 0.0000000e+00 
-4.6524183e-03 -3.1897048e-02 0.0000000e+00 
-2.3898778e-03 -3.2001028e-02 0.0000000e+00 
-1.3138382e-04 -3.2129079e-02 0.0000000e+00 
2.1256402e-03 -3.2281367e-02 0.0000000e+00 
-4.9673073e-03 -3.4957181e-02 0.0000000e+00 
-2.6137204e-03 -3.5072236e-02 0.0000000e+00 
-2.6421592e-04 -3.5210838e-02 0.0000000e+00 
2.0837541e-03 -3.5373164e-02 0.0000000e+00 
-5.2934389e-03 -3.8137035e-02 0.0000000e+00 
-2.8507766e-03 -3.8263342e-02 0.0000000e+00 
-4.1222681e-04 -3.8412675e-02 0.0000000e+00 
2.0247303e-03 -3.8585226e-02 0.0000000e+00 
-5.6310711e-03 -4.1434041e-02 0.0000000e+00 
-3.1012832e-03 -4.1571751e-02 0.0000000e+00 
-5.7563136e-04 -4.1731973e-02 0.0000000e+00 
1.9483753e-03 -4.1914913e-02 0.0000000e+00 
-5.9804332e-03 -4.4845655e-02 0.0000000e+00 
-3.3654459e-03 -4.4994897e-02 0.0000000e+00 
-7.5461395e-04 -4.5166145e-02 0.0000000e+00 
1.8545265e-03 -4.5359614e-02 0.0000000e+00 
-6.3417213e-03 -4.8369361e-02 0.0000000e+00 
-3.6434416e-03 -4.8530244e-02 0.0000000e+00 
-9.4932936e-04 -4.8712631e-02 0.0000000e+00 
1.7430501e-03 -4.8916750e-02 0.0000000e+00 
-6.7151073e-03 -5.2002672e-02 0.0000000e+00 
-3.9354183e-03 -5.2175284e-02 0.0000000e+00 
-1.1599041e-03 -5.2368903e-02 0.0000000e+00 
1.6138416e-03 -5.2583769e-02 0.0000000e+00 
-7.1007349e-03 -5.5743128e-02 0.0000000e+00 
-4.2414980e-03 -5.5927535e-02 0.0000000e+00 
-1.3864376e-03 -5.6132461e-02 0.0000000e+00 
1.4668234e-03 -5.6358154e-02 0.0000000e+00 
-7.4987233e-03 -5.9588298e-02 0.0000000e+00 
-4.5617765e-03 -5.9784549e-02 0.0000000e+00 
-1.6290034e-03 -6.0000835e-02 0.0000000e+00 
1.3019444e-03 -6.0237415e-02 0.0000000e+00 
-7.9091661e-03 -6.3535780e-02 0.0000000e+00 
-4.8963252e-03 -6.3743904e-02 0.0000000e+00 
-1.8876504e-03 -6.3971588e-02 0.0000000e+00 
1.1191778e-03 -6.4219097e-02 0.0000000e+00 
-8.3321344e-03 -6.7583199e-02 0.0000000e+00 
-5.2451920e-03 -6.7803210e-02 0.0000000e+00 
-2.1624037e-03 -6.8042310e-02 0.0000000e+00 
9.1852102e-04 -6.8300773e-02 0.0000000e+00 
-8.7676761e-03 -7.1728212e-02 0.0000000e+00 
-5.6084020e-03 -7.1960106e-02 0.0000000e+00 
-2.4532660e-03 -7.2210625e-02 0.0000000e+00 
6.9999369e-04 -7.2480050e-02 0.0000000e+00 
-9.2158177e-03 -7.5968502e-02 0.0000000e+00 
-5.9859594e-03 -7.6212260e-02 0.0000000e+00 
-2.7602186e-03 -7.6474185e-02 0.0000000e+00 
4.6363709e-04 -7.6754565e-02 0.0000000e+00 
-9.6765665e-03 -8.0301783e-02 0.0000000e+00 
-6.3778475e-03 -8.0557371e-02 0.0000000e+00 
-3.0832221e-03 -8.0830674e-02 0.0000000e+00 
2.0951318e-04 -8.1121987e-02 0.0000000e+00 
-1.0149909e-02 -8.4725798e-02 0.0000000e+00 
-6.7840307e-03 -8.4993168e-02 0.0000000e+00 
-3.4222180e-03 -8.5277806e-02 0.0000000e+00 
-6.2296682e-05 -8.5580016e-02 0.0000000e+00 
-1.0635814e-02 -8.9238320e-02 0.0000000e+00 
-7.2044552e-03 -8.9517410e-02 0.0000000e+00 
-3.7771289e-03 -8.9813328e-02 0.0000000e+00 
-3.5169246e-04 -9.0126384e-02 0.0000000e+00 
-1.1134237e-02 -9.3837151e-02 0.0000000e+00 
-7.6390496e-03 -9.4127885e-02 0.0000000e+00 
-4.1478605e-03 -9.4435016e-02 0.0000000e+00 
-6.5855580e-04 -9.4758857e-02 0.0000000e+00 
-1.1645113e-02 -9.8520125e-02 0.0000000e+00 
-8.0877269e-03 -9.8822417e-02 0.0000000e+00 
-4.5343019e-03 -9.9140680e-02 0.0000000e+00 
-9.8275296e-04 -9.9475230e-02 0.0000000e+00 
-1.2168361e-02 -1.0328510e-01 0.0000000e+00 
-8.5503836e-03 -1.0359886e-01 0.0000000e+00 
-4.9363267e-03 -1.0392816e-01 0.0000000e+00 
-1.3241349e-03 -1.0427333e-01 0.0000000e+00 
-1.2703888e-02 -1.0812998e-01 0.0000000e+00 
-9.0269012e-03 -1.0845508e-01 0.0000000e+00 
-5.3537942e-03 -1.0879533e-01 0.0000000e+00 
-1.6825380e-03 -1.0915103e-01 0.0000000e+00 
-1.3251579e-02 -1.1305268e-01 0.0000000e+00 
-9.5171474e-03 -1.1338901e-01 0.0000000e+00 
-5.7865493e-03 -1.1374008e-01 0.0000000e+00 
-2.0577856e-03 -1.1410621e-01 0.0000000e+00 
-1.3811315e-02 -1.1805114e-01 0.0000000e+00 
-1.0020976e-02 -1.1839858e-01 0.0000000e+00 
-6.2344238e-03 -1.1876036e-01 0.0000000e+00 
-2.4496866e-03 -1.1913679e-01 0.0000000e+00 
-1.4382960e-02 -1.2312335e-01 0.0000000e+00 
-1.0538231e-02 -1.2348177e-01 0.0000000e+00 
-6.6972373e-03 -1.2385411e-01 0.0000000e+00 
-2.8580380e-03 -1.2424072e-01 0.0000000e+00 
-1.4966369e-02 -1.2826733e-01 0.0000000e+00 
-1.1068742e-02 -1.2863656e-01 0.0000000e+00 
-7.1747979e-03 -1.2901934e-01 0.0000000e+00 
-3.2826249e-03 -1.2941600e-01 0.0000000e+00 
-1.5561385e-02 -1.3348110e-01 0.0000000e+00 
-1.1612330e-02 -1.3386101e-01 0.0000000e+00 
-7.6669031e-03 -1.3425407e-01 0.0000000e+00 
-3.7232222e-03 -1.3466063e-01 0.0000000e+00 
-1.6167844e-02 -1.3876274e-01 0.0000000e+00 
-1.2168806e-02 -1.3915316e-01 0.0000000e+00 
-8.1733408e-03 -1.3955635e-01 0.0000000e+00 
-4.1795946e-03 -1.3997267e-01 0.0000000e+00 
-1.6785568e-02 -1.4411034e-01 0.0000000e+00 
-1.2737972e-02 -1.4451110e-01 0.0000000e+00 
-8.6938895e-03 -1.4492428e-01 0.0000000e+00 
-4.6514980e-03 -1.4535020e-01 0.0000000e+00 
-1.7414375e-02 -1.4952204e-01 0.0000000e+00 
-1.3319620e-02 -1.4993298e-01 0.0000000e+00 
-9.2283195e-03 -1.5035596e-01 0.0000000e+00 
-5.1386799e-03 -1.5079132e-01 0.0000000e+00 
-1.8054073e-02 -1.5499600e-01 0.0000000e+00 
-1.3913536e-02 -1.5541692e-01 0.0000000e+00 
-9.7763933e-03 -1.5584954e-01 0.0000000e+00 
-5.6408800e-03 -1.5629418e-01 0.0000000e+00 
-1.8704463e-02 -1.6053040e-01 0.0000000e+00 
-1.4519498e-02 -1.6096113e-01 0.0000000e+00 
-1.0337866e-02 -1.6140320e-01 0.0000000e+00 
-6.1578309e-03 -1.6185695e-01 0.0000000e+00 
-1.9365341e-02 -1.6612346e-01 0.0000000e+00 
-1.5137280e-02 -1.6656381e-01 0.0000000e+00 
-1.0912488e-02 -1.6701516e-01 0.0000000e+00 
-6.6892590e-03 -1.6747784e-01 0.0000000e+00 
-2.0036496e-02 -1.7177342e-01 0.0000000e+00 
-1.5766646e-02 -1.7222321e-01 0.0000000e+00 
-1.1500002e-02 -1.7268365e-01 0.0000000e+00 
-7.2348850e-03 -1.7315508e-01 0.0000000e+00 
-2.0717711e-02 -1.7747858e-01 0.0000000e+00 
-1.6407359e-02 -1.7793760e-01 0.0000000e+00 
-1.2100145e-02 -1.7840694e-01 0.0000000e+00 
-7.7944243e-03 -1.7888693e-01 0.0000000e+00 
-2.1408770e-02 -1.8323723e-01 0.0000000e+00 
-1.7059175e-02 -1.8370529e-01 0.0000000e+00 
-1.2712653e-02 -1.8418333e-01 0.0000000e+00 
-8.3675868e-03 -1.8467171e-01 0.0000000e+00 
-2.2109450e-02 -1.8904772e-01 0.0000000e+00 
-1.7721849e-02 -1.8952461e-01 0.0000000e+00 
-1.3337255e-02 -1.9001117e-01 0.0000000e+00 
-8.9540800e-03 -1.9050773e-01 0.0000000e+00 
-2.2819522e-02 -1.9490841e-01 0.0000000e+00 
-1.8395130e-02 -1.9539393e-01 0.0000000e+00 
-1.3973679e-02 -1.9588881e-01 0.0000000e+00 
-9.5536088e-03 -1.9639337e-01 0.0000000e+00 
-2.3538756e-02 -2.0081770e-01 0.0000000e+00 
-1.9078765e-02 -2.0131165e-01 0.0000000e+00 
-1.4621649e-02 -2.0181464e-01 0.0000000e+00 
-1.0165875e-02 -2.0232702e-01 0.0000000e+00 
-2.4266915e-02 -2.0677402e-01 0.0000000e+00 
-1.9772497e-02 -2.0727619e-01 0.0000000e+00 
-1.5280886e-02 -2.0778710e-01 0.0000000e+00 
-1.0790579e-02 -2.0830709e-01 0.0000000e+00 
-2.5003763e-02 -2.1277583e-01 0.0000000e+00 
-2.0476067e-02 -2.1328601e-01 0.0000000e+00 
-1.5951110e-02 -2.1380464e-01 0.0000000e+00 
-1.1427418e-02 -2.1433204e-01 0.0000000e+00 
-2.5749064e-02 -2.1882162e-01 0.0000000e+00 
-2.1189216e-02 -2.1933960e-01 0.0000000e+00 
-1.6632039e-02 -2.1986574e-01 0.0000000e+00 
-1.2076087e-02 -2.2040035e-01 0.0000000e+00 
-2.6502580e-02 -2.2490988e-01 0.0000000e+00 
-2.1911683e-02 -2.2543546e-01 0.0000000e+00 
-1.7323389e-02 -2.2596890e-01 0.0000000e+00 
-1.2736282e-02 -2.2651054e-01 0.0000000e+00 
-2.7264073e-02 -2.3103918e-01 0.0000000e+00 
-2.2643208e-02 -2.3157214e-01 0.0000000e+00 
-1.8024879e-02 -2.3211269e-01 0.0000000e+00 
-1.3407696e-02 -2.3266114e-01 0.0000000e+00 
-2.8033303e-02 -2.3720809e-01 0.0000000e+00 
-2.3383529e-02 -2.3774821e-01 0.0000000e+00 
-1.8736223e-02 -2.3829566e-01 0.0000000e+00 
-1.4090025e-02 -2.3885074e-01 0.0000000e+00 
-2.8810032e-02 -2.4341519e-01 0.0000000e+00 
-2.4132386e-02 -2.4396228e-01 0.0000000e+00 
-1.9457140e-02 -2.4451643e-01 0.0000000e+00 
-1.4782962e-02 -2.4507793e-01 0.0000000e+00 
-2.9594023e-02 -2.4965914e-01 0.0000000e+00 
-2.4889519e-02 -2.5021298e-01 0.0000000e+00 
-2.0187346e-02 -2.5077362e-01 0.0000000e+00 
-1.5486204e-02 -2.5134134e-01 0.0000000e+00 
-3.0385038e-02 -2.5593858e-01 0.0000000e+00 
-2.5654668e-02 -2.5649897e-01 0.0000000e+00 
-2.0926562e-02 -2.5706590e-01 0.0000000e+00 
-1.6199446e-02 -2.5763966e-01 0.0000000e+00 
-3.1182847e-02 -2.6225222e-01 0.0000000e+00 
-2.6427578e-02 -2.6281895e-01 0.0000000e+00 
-2.1674506e-02 -2.6339196e-01 0.0000000e+00 
-1.6922387e-02 -2.6397156e-01 0.0000000e+00 
-3.1987215e-02 -2.6859876e-01 0.0000000e+00 
-2.7207994e-02 -2.6917163e-01 0.0000000e+00 
-2.2430903e-02 -2.6975053e-01 0.0000000e+00 
-1.7654727e-02 -2.7033577e-01 0.0000000e+00 
-3.2797912e-02 -2.7497697e-01 0.0000000e+00 
-2.7995662e-02 -2.7555576e-01 0.0000000e+00 
-2.3195477e-02 -2.7614036e-01 0.0000000e+00 
-1.8396169e-02 -2.7673106e-01 0.0000000e+00 
-3.3614709e-02 -2.8138561e-01 0.0000000e+00 
-2.8790332e-02 -2.8197014e-01 0.0000000e+00 
-2.3967956e-02 -2.8256024e-01 0.0000000e+00 
-1.9146419e-02 -2.8315619e-01 0.0000000e+00 
-3.4437375e-02 -2.8782351e-01 0.0000000e+00 
-2.9591754e-02 -2.8841357e-01 0.0000000e+00 
-2.4748069e-02 -2.8900897e-01 0.0000000e+00 
-1.9905188e-02 -2.8961000e-01 0.0000000e+00 
-3.5265686e-02 -2.9428948e-01 0.0000000e+00 
-3.0399682e-02 -2.9488487e-01 0.0000000e+00 
-2.5535551e-02 -2.9548539e-01 0.0000000e+00 
-2.0672187e-02 -2.9609131e-01 0.0000000e+00 
-3.6099420e-02 -3.0078239e-01 0.0000000e+00 
-3.1213873e-02 -3.0138293e-01 0.0000000e+00 
-2.6330136e-02 -3.0198837e-01 0.0000000e+00 
-2.1447131e-02 -3.0259899e-01 0.0000000e+00 
-3.6938361e-02 -3.0730114e-01 0.0000000e+00 
-3.2034089e-02 -3.0790662e-01 0.0000000e+00 
-2.7131564e-02 -3.0851681e-01 0.0000000e+00 
-2.2229736e-02 -3.0913195e-01 0.0000000e+00 
-3.7782294e-02 -3.1384463e-01 0.0000000e+00 
-3.2860093e-02 -3.1445488e-01 0.0000000e+00 
-2.7939578e-02 -3.1506962e-01 0.0000000e+00 
-2.3019726e-02 -3.1568911e-01 0.0000000e+00 
-3.8631009e-02 -3.2041182e-01 0.0000000e+00 
-3.3691655e-02 -3.2102664e-01 0.0000000e+00 
-2.8753926e-02 -3.2164576e-01 0.0000000e+00 
-2.3816827e-02 -3.2226943e-01 0.0000000e+00 
-3.9484300e-02 -3.2700169e-01 0.0000000e+00 
-3.4528547e-02 -3.2762090e-01 0.0000000e+00 
-2.9574359e-02 -3.2824422e-01 0.0000000e+00 
-2.4620769e-02 -3.2887189e-01 0.0000000e+00 
-4.0341964e-02 -3.3361322e-01 0.0000000e+00 
-3.5370545e-02 -3.3423665e-01 0.0000000e+00 
-3.0400633e-02 -3.3486400e-01 0.0000000e+00 
-2.5431287e-02 -3.3549550e-01 0.0000000e+00 
-4.1203804e-02 -3.4024546e-01 0.0000000e+00 
-3.6217432e-02 -3.4087293e-01 0.0000000e+00 
-3.1232509e-02 -3.4150413e-01 0.0000000e+00 
-2.6248121e-02 -3.4213930e-01 0.0000000e+00 
-4.2069626e-02 -3.4689746e-01 0.0000000e+00 
-3.7068993e-02 -3.4752879e-01 0.0000000e+00 
-3.2069751e-02 -3.4816369e-01 0.0000000e+00 
-2.7071016e-02 -3.4880237e-01 0.0000000e+00 
-4.2939242e-02 -3.5356831e-01 0.0000000e+00 
-3.7925018e-02 -3.5420334e-01 0.0000000e+00 
-3.2912131e-02 -3.5484176e-01 0.0000000e+00 
-2.7899721e-02 -3.5548379e-01 0.0000000e+00 
-4.3812467e-02 -3.6025711e-01 0.0000000e+00 
-3.8785304e-02 -3.6089567e-01 0.0000000e+00 
-3.3759424e-02 -3.6153746e-01 0.0000000e+00 
-2.8733992e-02 -3.6218269e-01 0.0000000e+00 
-4.4689121e-02 -3.6696300e-01 0.0000000e+00 
-3.9649652e-02 -3.6760494e-01 0.0000000e+00 
-3.4611409e-02 -3.6824995e-01 0.0000000e+00 
-2.9573589e-02 -3.6889822e-01 0.0000000e+00 
-4.5569035e-02 -3.7368516e-01 0.0000000e+00 
-4.0517867e-02 -3.7433032e-01 0.0000000e+00 
-3.5467873e-02 -3.7497838e-01 0.0000000e+00 
-3.0418276e-02 -3.7562956e-01 0.0000000e+00 
-4.6452039e-02 -3.8042277e-01 0.0000000e+00 
-4.1389762e-02 -3.8107099e-01 0.0000000e+00 
-3.6328608e-02 -3.8172197e-01 0.0000000e+00 
-3.1267824e-02 -3.8237591e-01 0.0000000e+00 
-4.7337970e-02 -3.8717506e-01 0.0000000e+00 
-4.2265153e-02 -3.8782620e-01 0.0000000e+00 
-3.7193410e-02 -3.8847995e-01 0.0000000e+00 
-3.2122013e-02 -3.8913651e-01 0.0000000e+00 
-4.8226670e-02 -3.9394127e-01 0.0000000e+00 
-4.3143862e-02 -3.9459518e-01 0.0000000e+00 
-3.8062083e-02 -3.9525156e-01 0.0000000e+00 
-3.2980625e-02 -3.9591061e-01 0.0000000e+00 
-4.9117978e-02 -4.0072066e-01 0.0000000e+00 
-4.4025716e-02 -4.0137721e-01 0.0000000e+00 
-3.8934434e-02 -4.0203609e-01 0.0000000e+00 
-3.3843452e-02 -4.0269750e-01 0.0000000e+00 
-5.0011746e-02 -4.0751254e-01 0.0000000e+00 
-4.4910544e-02 -4.0817159e-01 0.0000000e+00 
-3.9810277e-02 -4.0883284e-01 0.0000000e+00 
-3.4710287e-02 -4.0949647e-01 0.0000000e+00 
-5.0907830e-02 -4.1431622e-01 0.0000000e+00 
-4.5798185e-02 -4.1497763e-01 0.0000000e+00 
-4.0689430e-02 -4.1564113e-01 0.0000000e+00 
-3.5580932e-02 -4.1630687e-01 0.0000000e+00 
-5.1806091e-02 -4.2113105e-01 0.0000000e+00 
-4.6688482e-02 -4.2179470e-01 0.0000000e+00 
-4.1571718e-02 -4.2246031e-01 0.0000000e+00 
-3.6455191e-02 -4.2312804e-01 0.0000000e+00 
-5.2706395e-02 -4.2795639e-01 0.0000000e+00 
-4.7581281e-02 -4.2862215e-01 0.0000000e+00 
-4.2456970e-02 -4.2928976e-01 0.0000000e+00 
-3.7332876e-02 -4.2995937e-01 0.0000000e+00 
-5.3608614e-02 -4.3479163e-01 0.0000000e+00 
-4.8476437e-02 -4.3545939e-01 0.0000000e+00 
-4.3345022e-02 -4.3612888e-01 0.0000000e+00 
-3.8213807e-02 -4.3680026e-01 0.0000000e+00 
-5.4512622e-02 -4.4163619e-01 0.0000000e+00 
-4.9373808e-02 -4.4230582e-01 0.0000000e+00 
-4.4235716e-02 -4.4297709e-01 0.0000000e+00 
-3.9097806e-02 -4.4365013e-01 0.0000000e+00 
-5.5418302e-02 -4.4848950e-01 0.0000000e+00 
-5.0273258e-02 -4.4916091e-01 0.0000000e+00 
-4.5128898e-02 -4.4983384e-01 0.0000000e+00 
-3.9984704e-02 -4.5050844e-01 0.0000000e+00 
-5.6325539e-02 -4.5535103e-01 0.0000000e+00 
-5.1174657e-02 -4.5602410e-01 0.0000000e+00 
-4.6024421e-02 -4.5669860e-01 0.0000000e+00 
-4.0874336e-02 -4.5737466e-01 0.0000000e+00 
-5.7234228e-02 -4.6222026e-01 0.0000000e+00 
-5.2077881e-02 -4.6289489e-01 0.0000000e+00 
-4.6922143e-02 -4.6357085e-01 0.0000000e+00 
-4.1766541e-02 -4.6424828e-01 0.0000000e+00 
-5.8144265e-02 -4.6909669e-01 0.0000000e+00 
-5.2982809e-02 -4.6977278e-01 0.0000000e+00 
-4.7821928e-02 -4.7045012e-01 0.0000000e+00 
-4.2661169e-02 -4.7112883e-01 0.0000000e+00 
-5.9055552e-02 -4.7597985e-01 0.0000000e+00 
-5.3889328e-02 -4.7665731e-01 0.0000000e+00 
-4.8723646e-02 -4.7733594e-01 0.0000000e+00 
-4.3558073e-02 -4.7801584e-01 0.0000000e+00 
-5.9967995e-02 -4.8286930e-01 0.0000000e+00 
-5.4797328e-02 -4.8354804e-01 0.0000000e+00 
-4.9627172e-02 -4.8422786e-01 0.0000000e+00 
-4.4457113e-02 -4.8490887e-01 0.0000000e+00 
-6.0881499e-02 -4.8976460e-01 0.0000000e+00 
-5.5706703e-02 -4.9044453e-01 0.0000000e+00 
-5.0532387e-02 -4.9112546e-01 0.0000000e+00 
-4.5358156e-02 -4.9180750e-01 0.0000000e+00 
-6.1795978e-02 -4.9666533e-01 0.0000000e+00 
-5.6617351e-02 -4.9734637e-01 0.0000000e+00 
-5.1439174e-02 -4.9802833e-01 0.0000000e+00 
-4.6261071e-02 -4.9871133e-01 0.0000000e+00 
-6.2711352e-02 -5.0357110e-01 0.0000000e+00 
-5.7529177e-02 -5.0425317e-01 0.0000000e+00 
-5.2347423e-02 -5.0493609e-01 0.0000000e+00 
-4.7165735e-02 -5.0561998e-01 0.0000000e+00 
-6.3627543e-02 -5.1048154e-01 0.0000000e+00 
-5.8442090e-02 -5.1116456e-01 0.0000000e+00 
-5.3257031e-02 -5.1184838e-01 0.0000000e+00 
-4.8072027e-02 -5.1253307e-01 0.0000000e+00 
-6.4544479e-02 -5.1739629e-01 0.0000000e+00 
-5.9356003e-02 -5.1808020e-01 0.0000000e+00 
-5.4167895e-02 -5.1876483e-01 0.0000000e+00 
-4.8979833e-02 -5.1945027e-01 0.0000000e+00 
-6.5462092e-02 -5.2431502e-01 0.0000000e+00 
-6.0270835e-02 -5.2499973e-01 0.0000000e+00 
-5.5079921e-02 -5.2568512e-01 0.0000000e+00 
-4.9889045e-02 -5.2637126e-01 0.0000000e+00 
-6.6380318e-02 -5.3123739e-01 0.0000000e+00 
-6.1186509e-02 -5.3192286e-01 0.0000000e+00 
-5.5993018e-02 -5.3260894e-01 0.0000000e+00 
-5.0799558e-02 -5.3329571e-01 0.0000000e+00 
-6.7299097e-02 -5.3816312e-01 0.0000000e+00 
-6.2102951e-02 -5.3884928e-01 0.0000000e+00 
-5.6907101e-02 -5.3953599e-01 0.0000000e+00 
-5.1711275e-02 -5.4022334e-01 0.0000000e+00 
-6.8218371e-02 -5.4509192e-01 0.0000000e+00 
-6.3020093e-02 -5.4577871e-01 0.0000000e+00 
-5.7822088e-02 -5.4646600e-01 0.0000000e+00 
-5.2624102e-02 -5.4715387e-01 0.0000000e+00 
-6.9138088e-02 -5.5202351e-01 0.0000000e+00 
-6.3937869e-02 -5.5271087e-01 0.0000000e+00 
-5.8737903e-02 -5.5339870e-01 0.0000000e+00 
-5.3537950e-02 -5.5408704e-01 0.0000000e+00 
-7.0058198e-02 -5.5895765e-01 0.0000000e+00 
-6.4856220e-02 -5.5964554e-01 0.0000000e+00 
-5.9654473e-02 -5.6033384e-01 0.0000000e+00 
-5.4452735e-02 -5.6102262e-01 0.0000000e+00 