# vtk DataFile Version 4.0
vtk output
ASCII
DATASET UNSTRUCTURED_GRID
POINTS 604 float
5.5000000e+00 5.9700000e+00 0.0000000e+00 
5.5000000e+00 5.9900000e+00 0.0000000e+00 
5.5266667e+00 5.9700000e+00 0.0000000e+00 
5.5266667e+00 5.9900000e+00 0.0000000e+00 
5.5000000e+00 6.0100000e+00 0.0000000e+00 
5.5266667e+00 6.0100000e+00 0.0000000e+00 
5.5533333e+00 5.9700000e+00 0.0000000e+00 
5.5533333e+00 5.9900000e+00 0.0000000e+00 
5.5000000e+00 6.0300000e+00 0.0000000e+00 
5.5266667e+00 6.0300000e+00 0.0000000e+00 
5.5533333e+00 6.0100000e+00 0.0000000e+00 
5.5800000e+00 5.9700000e+00 0.0000000e+00 
5.5533333e+00 6.0300000e+00 0.0000000e+00 
5.5800000e+00 5.9900000e+00 0.0000000e+00 
5.5800000e+00 6.0100000e+00 0.0000000e+00 
5.5800000e+00 6.0300000e+00 0.0000000e+00 
5.6066667e+00 5.9700000e+00 0.0000000e+00 
5.6066667e+00 5.9900000e+00 0.0000000e+00 
5.6066667e+00 6.0100000e+00 0.0000000e+00 
5.6066667e+00 6.0300000e+00 0.0000000e+00 
5.6333333e+00 5.9700000e+00 0.0000000e+00 
5.6333333e+00 5.9900000e+00 0.0000000e+00 
5.6333333e+00 6.0100000e+00 0.0000000e+00 
5.6333333e+00 6.0300000e+00 0.0000000e+00 
5.6600000e+00 5.9700000e+00 0.0000000e+00 
5.6600000e+00 5.9900000e+00 0.0000000e+00 
5.6600000e+00 6.0100000e+00 0.0000000e+00 
5.6600000e+00 6.0300000e+00 0.0000000e+00 
5.6866667e+00 5.9700000e+00 0.0000000e+00 
5.6866667e+00 5.9900000e+00 0.0000000e+00 
5.6866667e+00 6.0100000e+00 0.0000000e+00 
5.6866667e+00 6.0300000e+00 0.0000000e+00 
5.7133333e+00 5.9700000e+00 0.0000000e+00 
5.7133333e+00 5.9900000e+00 0.0000000e+00 
5.7133333e+00 6.0100000e+00 0.0000000e+00 
5.7133333e+00 6.0300000e+00 0.0000000e+00 
5.7400000e+00 5.9700000e+00 0.0000000e+00 
5.7400000e+00 5.9900000e+00 0.0000000e+00 
5.7400000e+00 6.0100000e+00 0.0000000e+00 
5.7400000e+00 6.0300000e+00 0.0000000e+00 
5.7666667e+00 5.9700000e+00 0.0000000e+00 
5.7666667e+00 5.9900000e+00 0.0000000e+00 
5.7666667e+00 6.0100000e+00 0.0000000e+00 
5.7666667e+00 6.0300000e+00 0.0000000e+00 
5.7933333e+00 5.9700000e+00 0.0000000e+00 
5.7933333e+00 5.9900000e+00 0.0000000e+00 
5.7933333e+00 6.0100000e+00 0.0000000e+00 
5.7933333e+00 6.0300000e+00 0.0000000e+00 
5.8200000e+00 5.9700000e+00 0.0000000e+00 
5.8200000e+00 5.9900000e+00 0.0000000e+00 
5.8200000e+00 6.0100000e+00 0.0000000e+00 
5.8200000e+00 6.0300000e+00 0.0000000e+00 
5.8466667e+00 5.9700000e+00 0.0000000e+00 
5.8466667e+00 5.9900000e+00 0.0000000e+00 
5.8466667e+00 6.0100000e+00 0.0000000e+00 
5.8466667e+00 6.0300000e+00 0.0000000e+00 
5.8733333e+00 5.9700000e+00 0.0000000e+00 
5.8733333e+00 5.9900000e+00 0.0000000e+00 
5.8733333e+00 6.0100000e+00 0.0000000e+00 
5.8733333e+00 6.0300000e+00 0.0000000e+00 
5.9000000e+00 5.9700000e+00 0.0000000e+00 
5.9000000e+00 5.9900000e+00 0.0000000e+00 
5.9000000e+00 6.0100000e+00 0.0000000e+00 
5.9000000e+00 6.0300000e+00 0.0000000e+00 
5.9266667e+00 5.9700000e+00 0.0000000e+00 
5.9266667e+00 5.9900000e+00 0.0000000e+00 
5.9266667e+00 6.0100000e+00 0.0000000e+00 
5.9266667e+00 6.0300000e+00 0.0000000e+00 
5.9533333e+00 5.9700000e+00 0.0000000e+00 
5.9533333e+00 5.9900000e+00 0.0000000e+00 
5.9533333e+00 6.0100000e+00 0.0000000e+00 
5.9533333e+00 6.0300000e+00 0.0000000e+00 
5.9800000e+00 5.9700000e+00 0.0000000e+00 
5.9800000e+00 5.9900000e+00 0.0000000e+00 
5.9800000e+00 6.0100000e+00 0.0000000e+00 
5.9800000e+00 6.0300000e+00 0.0000000e+00 
6.0066667e+00 5.9700000e+00 0.0000000e+00 
6.0066667e+00 5.9900000e+00 0.0000000e+00 
6.0066667e+00 6.0100000e+00 0.0000000e+00 
6.0066667e+00 6.0300000e+00 0.0000000e+00 
6.0333333e+00 5.9700000e+00 0.0000000e+00 
6.0333333e+00 5.9900000e+00 0.0000000e+00 
6.0333333e+00 6.0100000e+00 0.0000000e+00 
6.0333333e+00 6.0300000e+00 0.0000000e+00 
6.0600000e+00 5.9700000e+00 0.0000000e+00 
6.0600000e+00 5.9900000e+00 0.0000000e+00 
6.0600000e+00 6.0100000e+00 0.0000000e+00 
6.0600000e+00 6.0300000e+00 0.0000000e+00 
6.0866667e+00 5.9700000e+00 0.0000000e+00 
6.0866667e+00 5.9900000e+00 0.0000000e+00 
6.0866667e+00 6.0100000e+00 0.0000000e+00 
6.0866667e+00 6.0300000e+00 0.0000000e+00 
6.1133333e+00 5.9700000e+00 0.0000000e+00 
6.1133333e+00 5.9900000e+00 0.0000000e+00 
6.1133333e+00 6.0100000e+00 0.0000000e+00 
6.1133333e+00 6.0300000e+00 0.0000000e+00 
6.1400000e+00 5.9700000e+00 0.0000000e+00 
6.1400000e+00 5.9900000e+00 0.0000000e+00 
6.1400000e+00 6.0100000e+00 0.0000000e+00 
6.1400000e+00 6.0300000e+00 0.0000000e+00 
6.1666667e+00 5.9700000e+00 0.0000000e+00 
6.1666667e+00 5.9900000e+00 0.0000000e+00 
6.1666667e+00 6.0100000e+00 0.0000000e+00 
6.1666667e+00 6.0300000e+00 0.0000000e+00 
6.1933333e+00 5.9700000e+00 0.0000000e+00 
6.1933333e+00 5.9900000e+00 0.0000000e+00 
6.1933333e+00 6.0100000e+00 0.0000000e+00 
6.1933333e+00 6.0300000e+00 0.0000000e+00 
6.2200000e+00 5.9700000e+00 0.0000000e+00 
6.2200000e+00 5.9900000e+00 0.0000000e+00 
6.2200000e+00 6.0100000e+00 0.0000000e+00 
6.2200000e+00 6.0300000e+00 0.0000000e+00 
6.2466667e+00 5.9700000e+00 0.0000000e+00 
6.2466667e+00 5.9900000e+00 0.0000000e+00 
6.2466667e+00 6.0100000e+00 0.0000000e+00 
6.2466667e+00 6.0300000e+00 0.0000000e+00 
6.2733333e+00 5.9700000e+00 0.0000000e+00 
6.2733333e+00 5.9900000e+00 0.0000000e+00 
6.2733333e+00 6.0100000e+00 0.0000000e+00 
6.2733333e+00 6.0300000e+00 0.0000000e+00 
6.3000000e+00 5.9700000e+00 0.0000000e+00 
6.3000000e+00 5.9900000e+00 0.0000000e+00 
6.3000000e+00 6.0100000e+00 0.0000000e+00 
6.3000000e+00 6.0300000e+00 0.0000000e+00 
6.3266667e+00 5.9700000e+00 0.0000000e+00 
6.3266667e+00 5.9900000e+00 0.0000000e+00 
6.3266667e+00 6.0100000e+00 0.0000000e+00 
6.3266667e+00 6.0300000e+00 0.0000000e+00 
6.3533333e+00 5.9700000e+00 0.0000000e+00 
6.3533333e+00 5.9900000e+00 0.0000000e+00 
6.3533333e+00 6.0100000e+00 0.0000000e+00 
6.3533333e+00 6.0300000e+00 0.0000000e+00 
6.3800000e+00 5.9700000e+00 0.0000000e+00 
6.3800000e+00 5.9900000e+00 0.0000000e+00 
6.3800000e+00 6.0100000e+00 0.0000000e+00 
6.3800000e+00 6.0300000e+00 0.0000000e+00 
6.4066667e+00 5.9700000e+00 0.0000000e+00 
6.4066667e+00 5.9900000e+00 0.0000000e+00 
6.4066667e+00 6.0100000e+00 0.0000000e+00 
6.4066667e+00 6.0300000e+00 0.0000000e+00 
6.4333333e+00 5.9700000e+00 0.0000000e+00 
6.4333333e+00 5.9900000e+00 0.0000000e+00 
6.4333333e+00 6.0100000e+00 0.0000000e+00 
6.4333333e+00 6.0300000e+00 0.0000000e+00 
6.4600000e+00 5.9700000e+00 0.0000000e+00 
6.4600000e+00 5.9900000e+00 0.0000000e+00 
6.4600000e+00 6.0100000e+00 0.0000000e+00 
6.4600000e+00 6.0300000e+00 0.0000000e+00 
6.4866667e+00 5.9700000e+00 0.0000000e+00 
6.4866667e+00 5.9900000e+00 0.0000000e+00 
6.4866667e+00 6.0100000e+00 0.0000000e+00 
6.4866667e+00 6.0300000e+00 0.0000000e+00 
6.5133333e+00 5.9700000e+00 0.0000000e+00 
6.5133333e+00 5.9900000e+00 0.0000000e+00 
6.5133333e+00 6.0100000e+00 0.0000000e+00 
6.5133333e+00 6.0300000e+00 0.0000000e+00 
6.5400000e+00 5.9700000e+00 0.0000000e+00 
6.5400000e+00 5.9900000e+00 0.0000000e+00 
6.5400000e+00 6.0100000e+00 0.0000000e+00 
6.5400000e+00 6.0300000e+00 0.0000000e+00 
6.5666667e+00 5.9700000e+00 0.0000000e+00 
6.5666667e+00 5.9900000e+00 0.0000000e+00 
6.5666667e+00 6.0100000e+00 0.0000000e+00 
6.5666667e+00 6.0300000e+00 0.0000000e+00 
6.5933333e+00 5.9700000e+00 0.0000000e+00 
6.5933333e+00 5.9900000e+00 0.0000000e+00 
6.5933333e+00 6.0100000e+00 0.0000000e+00 
6.5933333e+00 6.0300000e+00 0.0000000e+00 
6.6200000e+00 5.9700000e+00 0.0000000e+00 
6.6200000e+00 5.9900000e+00 0.0000000e+00 
6.6200000e+00 6.0100000e+00 0.0000000e+00 
6.6200000e+00 6.0300000e+00 0.0000000e+00 
6.6466667e+00 5.9700000e+00 0.0000000e+00 
6.6466667e+00 5.9900000e+00 0.0000000e+00 
6.6466667e+00 6.0100000e+00 0.0000000e+00 
6.6466667e+00 6.0300000e+00 0.0000000e+00 
6.6733333e+00 5.9700000e+00 0.0000000e+00 
6.6733333e+00 5.9900000e+00 0.0000000e+00 
6.6733333e+00 6.0100000e+00 0.0000000e+00 
6.6733333e+00 6.0300000e+00 0.0000000e+00 
6.7000000e+00 5.9700000e+00 0.0000000e+00 
6.7000000e+00 5.9900000e+00 0.0000000e+00 
6.7000000e+00 6.0100000e+00 0.0000000e+00 
6.7000000e+00 6.0300000e+00 0.0000000e+00 
6.7266667e+00 5.9700000e+00 0.0000000e+00 
6.7266667e+00 5.9900000e+00 0.0000000e+00 
6.7266667e+00 6.0100000e+00 0.0000000e+00 
6.7266667e+00 6.0300000e+00 0.0000000e+00 
6.7533333e+00 5.9700000e+00 0.0000000e+00 
6.7533333e+00 5.9900000e+00 0.0000000e+00 
6.7533333e+00 6.0100000e+00 0.0000000e+00 
6.7533333e+00 6.0300000e+00 0.0000000e+00 
6.7800000e+00 5.9700000e+00 0.0000000e+00 
6.7800000e+00 5.9900000e+00 0.0000000e+00 
6.7800000e+00 6.0100000e+00 0.0000000e+00 
6.7800000e+00 6.0300000e+00 0.0000000e+00 
6.8066667e+00 5.9700000e+00 0.0000000e+00 
6.8066667e+00 5.9900000e+00 0.0000000e+00 
6.8066667e+00 6.0100000e+00 0.0000000e+00 
6.8066667e+00 6.0300000e+00 0.0000000e+00 
6.8333333e+00 5.9700000e+00 0.0000000e+00 
6.8333333e+00 5.9900000e+00 0.0000000e+00 
6.8333333e+00 6.0100000e+00 0.0000000e+00 
6.8333333e+00 6.0300000e+00 0.0000000e+00 
6.8600000e+00 5.9700000e+00 0.0000000e+00 
6.8600000e+00 5.9900000e+00 0.0000000e+00 
6.8600000e+00 6.0100000e+00 0.0000000e+00 
6.8600000e+00 6.0300000e+00 0.0000000e+00 
6.8866667e+00 5.9700000e+00 0.0000000e+00 
6.8866667e+00 5.9900000e+00 0.0000000e+00 
6.8866667e+00 6.0100000e+00 0.0000000e+00 
6.8866667e+00 6.0300000e+00 0.0000000e+00 
6.9133333e+00 5.9700000e+00 0.0000000e+00 
6.9133333e+00 5.9900000e+00 0.0000000e+00 
6.9133333e+00 6.0100000e+00 0.0000000e+00 
6.9133333e+00 6.0300000e+00 0.0000000e+00 
6.9400000e+00 5.9700000e+00 0.0000000e+00 
6.9400000e+00 5.9900000e+00 0.0000000e+00 
6.9400000e+00 6.0100000e+00 0.0000000e+00 
6.9400000e+00 6.0300000e+00 0.0000000e+00 
6.9666667e+00 5.9700000e+00 0.0000000e+00 
6.9666667e+00 5.9900000e+00 0.0000000e+00 
6.9666667e+00 6.0100000e+00 0.0000000e+00 
6.9666667e+00 6.0300000e+00 0.0000000e+00 
6.9933333e+00 5.9700000e+00 0.0000000e+00 
6.9933333e+00 5.9900000e+00 0.0000000e+00 
6.9933333e+00 6.0100000e+00 0.0000000e+00 
6.9933333e+00 6.0300000e+00 0.0000000e+00 
7.0200000e+00 5.9700000e+00 0.0000000e+00 
7.0200000e+00 5.9900000e+00 0.0000000e+00 
[...]
POINT_DATA 604
FIELD FieldData 2
DISPLACEMENT 3 604  float
0.0000000e+00 0.0000000e+00 0.0000000e+00 
0.0000000e+00 0.0000000e+00 0.0000000e+00 
1.6066569e-04 9.5420253e-05 0.0000000e+00 
5.1009308e-05 6.0958564e-05 0.0000000e+00 
0.0000000e+00 0.0000000e+00 0.0000000e+00 
-5.2277559e-05 6.0568085e-05 0.0000000e+00 
3.2559309e-04 3.1105251e-04 0.0000000e+00 
1.0756048e-04 2.8123168e-04 0.0000000e+00 
0.0000000e+00 0.0000000e+00 0.0000000e+00 
-1.6216069e-04 9.4379581e-05 0.0000000e+00 
-1.1164945e-04 2.7986396e-04 0.0000000e+00 
4.8886590e-04 6.7965254e-04 0.0000000e+00 
-3.3028003e-04 3.0714803e-04 0.0000000e+00 
1.5963775e-04 6.4774151e-04 0.0000000e+00 
-1.6975065e-04 6.4487110e-04 0.0000000e+00 
-4.9994830e-04 6.7122437e-04 0.0000000e+00 
6.4915767e-04 1.1964509e-03 0.0000000e+00 
2.0952354e-04 1.1625593e-03 0.0000000e+00 
-2.3055608e-04 1.1575652e-03 0.0000000e+00 
-6.7147319e-04 1.1816383e-03 0.0000000e+00 
8.0573201e-04 1.8614925e-03 0.0000000e+00 
2.5595686e-04 1.8249518e-03 0.0000000e+00 
-2.9439252e-04 1.8172265e-03 0.0000000e+00 
-8.4576406e-04 1.8384848e-03 0.0000000e+00 
9.5773767e-04 2.6742699e-03 0.0000000e+00 
2.9817739e-04 2.6344944e-03 0.0000000e+00 
-3.6210130e-04 2.6234414e-03 0.0000000e+00 
-1.0235703e-03 2.6412743e-03 0.0000000e+00 
1.1043511e-03 3.6342952e-03 0.0000000e+00 
3.3537612e-04 3.5906996e-03 0.0000000e+00 
-4.3445854e-04 3.5757280e-03 0.0000000e+00 
-1.2056513e-03 3.5895394e-03 0.0000000e+00 
1.2447553e-03 4.7410464e-03 0.0000000e+00 
3.6675862e-04 4.6930524e-03 0.0000000e+00 
-5.1223712e-04 4.6735783e-03 0.0000000e+00 
-1.3927567e-03 4.6827779e-03 0.0000000e+00 
1.3781425e-03 5.9939713e-03 0.0000000e+00 
3.9153940e-04 5.9410077e-03 0.0000000e+00 
-5.9620009e-04 5.9164542e-03 0.0000000e+00 
-1.5856272e-03 5.9204591e-03 0.0000000e+00 
1.5037147e-03 7.3924870e-03 0.0000000e+00 
4.0894290e-04 7.3339902e-03 0.0000000e+00 
-6.8710076e-04 7.3037880e-03 0.0000000e+00 
-1.7849937e-03 7.3020232e-03 0.0000000e+00 
1.6206850e-03 8.9359805e-03 0.0000000e+00 
4.1820380e-04 8.8713950e-03 0.0000000e+00 
-7.8568207e-04 8.8349830e-03 0.0000000e+00 
-1.9915768e-03 8.8268809e-03 0.0000000e+00 
1.7282763e-03 1.0623809e-02 0.0000000e+00 
4.1856800e-04 1.0552587e-02 0.0000000e+00 
-8.9267607e-04 1.0509412e-02 0.0000000e+00 
-2.2060862e-03 1.0494414e-02 0.0000000e+00 
1.8257245e-03 1.2455298e-02 0.0000000e+00 
4.0929279e-04 1.2376902e-02 0.0000000e+00 
-1.0088033e-03 1.2326420e-02 0.0000000e+00 
-2.4292203e-03 1.2303977e-02 0.0000000e+00 
1.9122773e-03 1.4429744e-02 0.0000000e+00 
3.8964776e-04 1.4343645e-02 0.0000000e+00 
-1.1347726e-03 1.4285322e-02 0.0000000e+00 
-2.6616660e-03 1.4254892e-02 0.0000000e+00 
1.9871956e-03 1.6546416e-02 0.0000000e+00 
3.5891499e-04 1.6452093e-02 0.0000000e+00 
-1.2712802e-03 1.6385404e-02 0.0000000e+00 
-2.9040978e-03 1.6346456e-02 0.0000000e+00 
2.0497531e-03 1.8804551e-02 0.0000000e+00 
3.1638975e-04 1.8701495e-02 0.0000000e+00 
-1.4190093e-03 1.8625923e-02 0.0000000e+00 
-3.1571775e-03 1.8577937e-02 0.0000000e+00 
2.0992373e-03 2.1203357e-02 0.0000000e+00 
2.6138095e-04 2.1091069e-02 0.0000000e+00 
-1.5786299e-03 2.1006111e-02 0.0000000e+00 
-3.4215538e-03 2.0948575e-02 0.0000000e+00 
2.1349508e-03 2.3742016e-02 0.0000000e+00 
1.9321152e-04 2.3620006e-02 0.0000000e+00 
-1.7507980e-03 2.3525167e-02 0.0000000e+00 
-3.6978615e-03 2.3457583e-02 0.0000000e+00 
2.1562101e-03 2.6419680e-02 0.0000000e+00 
1.1121914e-04 2.6287470e-02 0.0000000e+00 
-1.9361552e-03 2.6182266e-02 0.0000000e+00 
-3.9867216e-03 2.6104144e-02 0.0000000e+00 
2.1623476e-03 2.9235471e-02 0.0000000e+00 
1.4756692e-05 2.9092595e-02 0.0000000e+00 
-2.1353286e-03 2.8976555e-02 0.0000000e+00 
-4.2887405e-03 2.8887418e-02 0.0000000e+00 
2.1527128e-03 3.2188488e-02 0.0000000e+00 
-9.6807599e-05 3.2034491e-02 0.0000000e+00 
-2.3489297e-03 3.1907153e-02 0.0000000e+00 
-4.6045101e-03 3.1806535e-02 0.0000000e+00 
2.1266698e-03 3.5277801e-02 0.0000000e+00 
-2.2408963e-04 3.5112238e-02 0.0000000e+00 
-2.5775549e-03 3.4973155e-02 0.0000000e+00 
-4.9346067e-03 3.4860603e-02 0.0000000e+00 
2.0835990e-03 3.8502452e-02 0.0000000e+00 
-3.6768912e-04 3.8324893e-02 0.0000000e+00 
-2.8217843e-03 3.8173629e-02 0.0000000e+00 
-5.2795908e-03 3.8048701e-02 0.0000000e+00 
2.0228986e-03 4.1861458e-02 0.0000000e+00 
-5.2818958e-04 4.1671485e-02 0.0000000e+00 
-3.0821815e-03 4.1507616e-02 0.0000000e+00 
-5.6400063e-03 4.1369883e-02 0.0000000e+00 
1.9439810e-03 4.5353811e-02 0.0000000e+00 
-7.0615705e-04 4.5151017e-02 0.0000000e+00 
-3.3592934e-03 4.4974133e-02 0.0000000e+00 
-6.0163804e-03 4.4823179e-02 0.0000000e+00 
1.8462795e-03 4.8978473e-02 0.0000000e+00 
-9.0214037e-04 4.8762466e-02 0.0000000e+00 
-3.6536495e-03 4.8572169e-02 0.0000000e+00 
-6.4092237e-03 4.8407592e-02 0.0000000e+00 
1.7292445e-03 5.2734383e-02 0.0000000e+00 
-1.1166702e-03 5.2504783e-02 0.0000000e+00 
-3.9657620e-03 5.2300689e-02 0.0000000e+00 
-6.8190293e-03 5.2122100e-02 0.0000000e+00 
1.5923455e-03 5.6620454e-02 0.0000000e+00 
-1.3502592e-03 5.6376896e-02 0.0000000e+00 
-4.2961250e-03 5.6158634e-02 0.0000000e+00 
-7.2462732e-03 5.5965658e-02 0.0000000e+00 
1.4350701e-03 6.0635575e-02 0.0000000e+00 
-1.6034013e-03 6.0377708e-02 0.0000000e+00 
-4.6452146e-03 6.0144921e-02 0.0000000e+00 
-7.6914133e-03 5.9937196e-02 0.0000000e+00 
1.2569256e-03 6.4778612e-02 0.0000000e+00 
-1.8765719e-03 6.4506095e-02 0.0000000e+00 
-5.0134883e-03 6.4258442e-02 0.0000000e+00 
-8.1548892e-03 6.4035620e-02 0.0000000e+00 
1.0574383e-03 6.9048403e-02 0.0000000e+00 
-2.1702271e-03 6.8760915e-02 0.0000000e+00 
-5.4013850e-03 6.8498066e-02 0.0000000e+00 
-8.6371224e-03 6.8259815e-02 0.0000000e+00 
8.3615406e-04 7.3443768e-02 0.0000000e+00 
-2.4848040e-03 7.3140997e-02 0.0000000e+00 
-5.8093245e-03 7.2862640e-02 0.0000000e+00 
-9.1385156e-03 7.2608641e-02 0.0000000e+00 
5.9263948e-04 7.7963500e-02 0.0000000e+00 
-2.8207196e-03 7.7645153e-02 0.0000000e+00 
-6.2377073e-03 7.7350987e-02 0.0000000e+00 
-9.6594526e-03 7.7080937e-02 0.0000000e+00 
3.2648048e-04 8.2606372e-02 0.0000000e+00 
-3.1783714e-03 8.2272168e-02 0.0000000e+00 
-6.6869145e-03 8.1961909e-02 0.0000000e+00 
-1.0200298e-02 8.1675520e-02 0.0000000e+00 
3.7283599e-05 8.7371136e-02 0.0000000e+00 
-3.5581364e-03 8.7020809e-02 0.0000000e+00 
-7.1573077e-03 8.6694188e-02 0.0000000e+00 
-1.0761398e-02 8.6391185e-02 0.0000000e+00 
-2.7532112e-04 9.2256521e-02 0.0000000e+00 
-3.9603716e-03 9.1889821e-02 0.0000000e+00 
-7.6492286e-03 9.1546583e-02 0.0000000e+00 
-1.1343079e-02 9.1226708e-02 0.0000000e+00 
-6.1168614e-04 9.7261239e-02 0.0000000e+00 
-4.3854138e-03 9.6877930e-02 0.0000000e+00 
-8.1629992e-03 9.6517835e-02 0.0000000e+00 
-1.1945649e-02 9.6180845e-02 0.0000000e+00 
-9.7214284e-04 1.0238398e-01 0.0000000e+00 
-4.8335795e-03 1.0198384e-01 0.0000000e+00 
-8.6989214e-03 1.0160667e-01 0.0000000e+00 
-1.2569394e-02 1.0125233e-01 0.0000000e+00 
-1.3570009e-03 1.0762341e-01 0.0000000e+00 
-5.3051651e-03 1.0720624e-01 0.0000000e+00 
-9.2572767e-03 1.0681178e-01 0.0000000e+00 
-1.3214581e-02 1.0643989e-01 0.0000000e+00 
-1.7665528e-03 1.1297819e-01 0.0000000e+00 
-5.8004459e-03 1.1254380e-01 0.0000000e+00 
-9.8383258e-03 1.1213185e-01 0.0000000e+00 
-1.3881457e-02 1.1174221e-01 0.0000000e+00 
-2.2010658e-03 1.1844695e-01 0.0000000e+00 
-6.3196763e-03 1.1799515e-01 0.0000000e+00 
-1.0442309e-02 1.1756555e-01 0.0000000e+00 
-1.4570246e-02 1.1715797e-01 0.0000000e+00 
-2.6607867e-03 1.2402829e-01 0.0000000e+00 
-6.8630894e-03 1.2355894e-01 0.0000000e+00 
-1.1069446e-02 1.2311151e-01 0.0000000e+00 
-1.5281157e-02 1.2268583e-01 0.0000000e+00 
-3.1459402e-03 1.2972082e-01 0.0000000e+00 
-7.4308974e-03 1.2923377e-01 0.0000000e+00 
-1.1719937e-02 1.2876837e-01 0.0000000e+00 
-1.6014374e-02 1.2832444e-01 0.0000000e+00 
-3.6567304e-03 1.3552311e-01 0.0000000e+00 
-8.0232913e-03 1.3501823e-01 0.0000000e+00 
-1.2393958e-02 1.3453474e-01 0.0000000e+00 
-1.6770064e-02 1.3407243e-01 0.0000000e+00 
-4.1933392e-03 1.4143372e-01 0.0000000e+00 
-8.6404408e-03 1.4091091e-01 0.0000000e+00 
-1.3091668e-02 1.4040920e-01 0.0000000e+00 
-1.7548371e-02 1.3992839e-01 0.0000000e+00 
-4.7559273e-03 1.4745121e-01 0.0000000e+00 
-9.2824948e-03 1.4691036e-01 0.0000000e+00 
-1.3813204e-02 1.4639034e-01 0.0000000e+00 
-1.8349421e-02 1.4589092e-01 0.0000000e+00 
-5.3446337e-03 1.5357409e-01 0.0000000e+00 
-9.9495807e-03 1.5301513e-01 0.0000000e+00 
-1.4558682e-02 1.5247671e-01 0.0000000e+00 
-1.9173318e-02 1.5195860e-01 0.0000000e+00 
-5.9595758e-03 1.5980089e-01 0.0000000e+00 
-1.0641805e-02 1.5922375e-01 0.0000000e+00 
-1.5328197e-02 1.5866686e-01 0.0000000e+00 
-2.0020147e-02 1.5813000e-01 0.0000000e+00 
-6.6008497e-03 1.6613010e-01 0.0000000e+00 
-1.1359254e-02 1.6553473e-01 0.0000000e+00 
-1.6121825e-02 1.6495933e-01 0.0000000e+00 
-2.0889973e-02 1.6440365e-01 0.0000000e+00 
-7.2685302e-03 1.7256022e-01 0.0000000e+00 
-1.2101991e-02 1.7194658e-01 0.0000000e+00 
-1.6939620e-02 1.7135263e-01 0.0000000e+00 
-2.1782839e-02 1.7077809e-01 0.0000000e+00 
-7.9626710e-03 1.7908972e-01 0.0000000e+00 
-1.2870061e-02 1.7845779e-01 0.0000000e+00 
-1.7781616e-02 1.7784526e-01 0.0000000e+00 
-2.2698772e-02 1.7725184e-01 0.0000000e+00 
-8.6833051e-03 1.8571705e-01 0.0000000e+00 
-1.3663486e-02 1.8506684e-01 0.0000000e+00 
-1.8647827e-02 1.8443573e-01 0.0000000e+00 
-2.3637775e-02 1.8382342e-01 0.0000000e+00 
-9.4304406e-03 1.9244067e-01 0.0000000e+00 
-1.4482269e-02 1.9177219e-01 0.0000000e+00 
-1.9538248e-02 1.9112250e-01 0.0000000e+00 
-2.4599836e-02 1.9049131e-01 0.0000000e+00 
-1.0204069e-02 1.9925903e-01 0.0000000e+00 
-1.5326393e-02 1.9857229e-01 0.0000000e+00 
-2.0452854e-02 1.9790405e-01 0.0000000e+00 
-2.5584922e-02 1.9725400e-01 0.0000000e+00 
-1.1004161e-02 2.0617055e-01 0.0000000e+00 
-1.6195821e-02 2.0546560e-01 0.0000000e+00 
-2.1391599e-02 2.0477884e-01 0.0000000e+00 
-2.6592978e-02 2.0410997e-01 0.0000000e+00 
-1.1830666e-02 2.1317365e-01 0.0000000e+00 
-1.7090495e-02 2.1245054e-01 0.0000000e+00 
-2.2354419e-02 2.1174533e-01 0.0000000e+00 
-2.7623934e-02 2.1105768e-01 0.0000000e+00 
-1.2683519e-02 2.2026674e-01 0.0000000e+00 
-1.8010339e-02 2.1952554e-01 0.0000000e+00 
-2.3341230e-02 2.1880194e-01 0.0000000e+00 
-2.8677696e-02 2.1809558e-01 0.0000000e+00 
-1.3562628e-02 2.2744822e-01 0.0000000e+00 
-1.8955256e-02 2.2668902e-01 0.0000000e+00 
-2.4351928e-02 2.2594711e-01 0.0000000e+00 
-2.9754156e-02 2.2522212e-01 0.0000000e+00 
-1.4467884e-02 2.3471649e-01 0.0000000e+00 
-1.9925132e-02 2.3393938e-01 0.0000000e+00 
-2.5386391e-02 2.3317925e-01 0.0000000e+00 
-3.0853183e-02 2.3243574e-01 0.0000000e+00 
-1.5399158e-02 2.4206992e-01 0.0000000e+00 
-2.0919830e-02 2.4127502e-01 0.0000000e+00 
-2.6444478e-02 2.4049679e-01 0.0000000e+00 
-3.1974633e-02 2.3973485e-01 0.0000000e+00 
-1.6356302e-02 2.4950690e-01 0.0000000e+00 
-2.1939197e-02 2.4869433e-01 0.0000000e+00 
-2.7526031e-02 2.4789812e-01 0.0000000e+00 
-3.3118341e-02 2.4711788e-01 0.0000000e+00 
-1.7339146e-02 2.5702579e-01 0.0000000e+00 
-2.2983061e-02 2.5619570e-01 0.0000000e+00 
-2.8630872e-02 2.5538164e-01 0.0000000e+00 
-3.4284125e-02 2.5458323e-01 0.0000000e+00 
-1.8347506e-02 2.6462497e-01 0.0000000e+00 
-2.4051231e-02 2.6377750e-01 0.0000000e+00 
-2.9758808e-02 2.6294575e-01 0.0000000e+00 
-3.5471789e-02 2.6212932e-01 0.0000000e+00 
-1.9381178e-02 2.7230279e-01 0.0000000e+00 
-2.5143500e-02 2.7143810e-01 0.0000000e+00 
-3.0909628e-02 2.7058882e-01 0.0000000e+00 
-3.6681118e-02 2.6975455e-01 0.0000000e+00 
-2.0439939e-02 2.8005761e-01 0.0000000e+00 
-2.6259643e-02 2.7917588e-01 0.0000000e+00 
-3.2083104e-02 2.7830925e-01 0.0000000e+00 
-3.7911881e-02 2.7745730e-01 0.0000000e+00 
-2.1523547e-02 2.8788779e-01 0.0000000e+00 
-2.7399418e-02 2.8698921e-01 0.0000000e+00 
-3.3278994e-02 2.8610541e-01 0.0000000e+00 
-3.9163837e-02 2.8523597e-01 0.0000000e+00 
-2.2631749e-02 2.9579169e-01 0.0000000e+00 
-2.8562569e-02 2.9487646e-01 0.0000000e+00 
-3.4497039e-02 2.9397569e-01 0.0000000e+00 
-4.0436725e-02 2.9308895e-01 0.0000000e+00 
-2.3764271e-02 3.0376765e-01 0.0000000e+00 
-2.9748822e-02 3.0283598e-01 0.0000000e+00 
-3.5736966e-02 3.0191846e-01 0.0000000e+00 
-4.1730270e-02 3.0101464e-01 0.0000000e+00 
-2.4920826e-02 3.1181404e-01 0.0000000e+00 
-3.0957891e-02 3.1086615e-01 0.0000000e+00 
-3.6998486e-02 3.0993209e-01 0.0000000e+00 
-4.3044182e-02 3.0901141e-01 0.0000000e+00 
-2.6101116e-02 3.1992921e-01 0.0000000e+00 
-3.2189472e-02 3.1896533e-01 0.0000000e+00 
-3.8281295e-02 3.1801496e-01 0.0000000e+00 
-4.4378158e-02 3.1707765e-01 0.0000000e+00 
-2.7304822e-02 3.2811150e-01 0.0000000e+00 
-3.3443249e-02 3.2713188e-01 0.0000000e+00 
-3.9585077e-02 3.2616545e-01 0.0000000e+00 
-4.5731880e-02 3.2521175e-01 0.0000000e+00 
-2.8531613e-02 3.3635927e-01 0.0000000e+00 
-3.4718891e-02 3.3536416e-01 0.0000000e+00 
-4.0909502e-02 3.3438192e-01 0.0000000e+00 
-4.7105019e-02 3.3341209e-01 0.0000000e+00 
-2.9781142e-02 3.4467088e-01 0.0000000e+00 
-3.6016051e-02 3.4366054e-01 0.0000000e+00 
-4.2254225e-02 3.4266276e-01 0.0000000e+00 
-4.8497234e-02 3.4167706e-01 0.0000000e+00 
-3.1053049e-02 3.5304469e-01 0.0000000e+00 
-3.7334374e-02 3.5201939e-01 0.0000000e+00 
-4.3618891e-02 3.5100633e-01 0.0000000e+00 
-4.9908171e-02 3.5000503e-01 0.0000000e+00 
-3.2346962e-02 3.6147906e-01 0.0000000e+00 
-3.8673489e-02 3.6043907e-01 0.0000000e+00 
-4.5003135e-02 3.5941102e-01 0.0000000e+00 
-5.1337467e-02 3.5839441e-01 0.0000000e+00 
-3.3662496e-02 3.6997235e-01 0.0000000e+00 
-4.0033014e-02 3.6891798e-01 0.0000000e+00 
-4.6406577e-02 3.6787522e-01 0.0000000e+00 
-5.2784748e-02 3.6684358e-01 0.0000000e+00 
-3.4999254e-02 3.7852294e-01 0.0000000e+00 
-4.1412558e-02 3.7745447e-01 0.0000000e+00 
-4.7828831e-02 3.7639730e-01 0.0000000e+00 
-5.4249630e-02 3.7535093e-01 0.0000000e+00 
-3.6356828e-02 3.8712922e-01 0.0000000e+00 
-4.2811718e-02 3.8604695e-01 0.0000000e+00 
-4.9269500e-02 3.8497567e-01 0.0000000e+00 
-5.5731724e-02 3.8391488e-01 0.0000000e+00 
-3.7734802e-02 3.9578957e-01 0.0000000e+00 
-4.4230083e-02 3.9469382e-01 0.0000000e+00 
-5.0728178e-02 3.9360874e-01 0.0000000e+00 
-5.7230629e-02 3.9253383e-01 0.0000000e+00 
-3.9132747e-02 4.0450240e-01 0.0000000e+00 
-4.5667232e-02 4.0339347e-01 0.0000000e+00 
-5.2204452e-02 4.0229490e-01 0.0000000e+00 
-5.8745940e-02 4.0120620e-01 0.0000000e+00 
-4.0550229e-02 4.1326611e-01 0.0000000e+00 
-4.7122738e-02 4.1214432e-01 0.0000000e+00 
-5.3697901e-02 4.1103259e-01 0.0000000e+00 
-6.0277243e-02 4.0993042e-01 0.0000000e+00 
-4.1986804e-02 4.2207913e-01 0.0000000e+00 
-4.8596164e-02 4.2094481e-01 0.0000000e+00 
-5.5208099e-02 4.1982024e-01 0.0000000e+00 
-6.1824121e-02 4.1870492e-01 0.0000000e+00 
-4.3442018e-02 4.3093989e-01 0.0000000e+00 
-5.0087069e-02 4.2979337e-01 0.0000000e+00 
-5.6734614e-02 4.2865629e-01 0.0000000e+00 
-6.3386152e-02 4.2752815e-01 0.0000000e+00 
-4.4915416e-02 4.3984685e-01 0.0000000e+00 
-5.1595006e-02 4.3868845e-01 0.0000000e+00 
-5.8277008e-02 4.3753919e-01 0.0000000e+00 
-6.4962909e-02 4.3639858e-01 0.0000000e+00 
-4.6406535e-02 4.4879847e-01 0.0000000e+00 
-5.3119522e-02 4.4762852e-01 0.0000000e+00 
-5.9834840e-02 4.4646743e-01 0.0000000e+00 
-6.6553962e-02 4.4531467e-01 0.0000000e+00 
-4.7914907e-02 4.5779322e-01 0.0000000e+00 
-5.4660162e-02 4.5661207e-01 0.0000000e+00 
-6.1407665e-02 4.5543947e-01 0.0000000e+00 
-6.8158876e-02 4.5427492e-01 0.0000000e+00 
-4.9440063e-02 4.6682961e-01 0.0000000e+00 
-5.6216466e-02 4.6563759e-01 0.0000000e+00 
-6.2995034e-02 4.6445383e-01 0.0000000e+00 
-6.9777212e-02 4.6327783e-01 0.0000000e+00 
-5.0981529e-02 4.7590614e-01 0.0000000e+00 
-5.7787971e-02 4.7470359e-01 0.0000000e+00 
-6.4596495e-02 4.7350902e-01 0.0000000e+00 
-7.1408532e-02 4.7232191e-01 0.0000000e+00 
-5.2538824e-02 4.8502134e-01 0.0000000e+00 
-5.9374210e-02 4.8380861e-01 0.0000000e+00 
-6.6211597e-02 4.8260356e-01 0.0000000e+00 
-7.3052397e-02 4.8140569e-01 0.0000000e+00 
-5.4111468e-02 4.9417376e-01 0.0000000e+00 
-6.0974717e-02 4.9295118e-01 0.0000000e+00 
-6.7839886e-02 4.9173600e-01 0.0000000e+00 
-7.4708368e-02 4.9052772e-01 0.0000000e+00 
-5.5698977e-02 5.0336197e-01 0.0000000e+00 
-6.2589023e-02 5.0212988e-01 0.0000000e+00 
-6.9480909e-02 5.0090492e-01 0.0000000e+00 
-7.6376007e-02 4.9968658e-01 0.0000000e+00 
-5.7300868e-02 5.1258455e-01 0.0000000e+00 
-6.4216661e-02 5.1134329e-01 0.0000000e+00 
-7.1134214e-02 5.1010889e-01 0.0000000e+00 
-7.8054879e-02 5.0888084e-01 0.0000000e+00 
-5.8916657e-02 5.2184012e-01 0.0000000e+00 
-6.5857163e-02 5.2059003e-01 0.0000000e+00 
-7.2799352e-02 5.1934653e-01 0.0000000e+00 
-7.9744552e-02 5.1810912e-01 0.0000000e+00 
-6.0545861e-02 5.3112731e-01 0.0000000e+00 
-6.7510066e-02 5.2986874e-01 0.0000000e+00 
-7.4475876e-02 5.2861647e-01 0.0000000e+00 
-8.1444596e-02 5.2737004e-01 0.0000000e+00 
-6.2188000e-02 5.4044479e-01 0.0000000e+00 
-6.9174907e-02 5.3917806e-01 0.0000000e+00 
-7.6163343e-02 5.3791737e-01 0.0000000e+00 
-8.3154587e-02 5.3666226e-01 0.0000000e+00 
-6.3842597e-02 5.4979125e-01 0.0000000e+00 
-7.0851229e-02 5.4851668e-01 0.0000000e+00 
-7.7861315e-02 5.4724791e-01 0.0000000e+00 
-8.4874109e-02 5.4598447e-01 0.0000000e+00 
-6.5509178e-02 5.5916540e-01 0.0000000e+00 
-7.2538578e-02 5.5788333e-01 0.0000000e+00 
-7.9569358e-02 5.5660680e-01 0.0000000e+00 
-8.6602748e-02 5.5533536e-01 0.0000000e+00 
-6.7187274e-02 5.6856599e-01 0.0000000e+00 
-7.4236505e-02 5.6727674e-01 0.0000000e+00 
-8.1287045e-02 5.6599278e-01 0.0000000e+00 
-8.8340096e-02 5.6471366e-01 0.0000000e+00 
-6.8876422e-02 5.7799180e-01 0.0000000e+00 
-7.5944568e-02 5.7669568e-01 0.0000000e+00 
-8.3013953e-02 5.7540461e-01 0.0000000e+00 
-9.0085753e-02 5.7411815e-01 0.0000000e+00 
-7.0576165e-02 5.8744161e-01 0.0000000e+00 
-7.7662330e-02 5.8613894e-01 0.0000000e+00 
-8.4749664e-02 5.8484108e-01 0.0000000e+00 
-9.1839317e-02 5.8354760e-01 0.0000000e+00 
-7.2286052e-02 5.9691427e-01 0.0000000e+00 
-7.9389359e-02 5.9560534e-01 0.0000000e+00 
-8.6493769e-02 5.9430100e-01 0.0000000e+00 
-9.3600402e-02 5.9300082e-01 0.0000000e+00 
-7.4005634e-02 6.0640861e-01 0.0000000e+00 
-8.1125231e-02 6.0509374e-01 0.0000000e+00 
-8.8245866e-02 6.0378323e-01 0.0000000e+00 
-9.5368629e-02 6.0247666e-01 0.0000000e+00 
-7.5734473e-02 6.1592355e-01 0.0000000e+00 
-8.2869529e-02 6.1460302e-01 0.0000000e+00 
-9.0005560e-02 6.1328663e-01 0.0000000e+00 
-9.7143627e-02 6.1197398e-01 0.0000000e+00 
-7.7472137e-02 6.2545798e-01 0.0000000e+00 
-8.4621845e-02 6.2413209e-01 0.0000000e+00 
-9.1772468e-02 6.2281012e-01 0.0000000e+00 
-9.8925034e-02 6.2149169e-01 0.0000000e+00 
-7.9218203e-02 6.3501087e-01 0.0000000e+00 
-8.6381780e-02 6.3367989e-01 0.0000000e+00 
-9.3546213e-02 6.3235263e-01 0.0000000e+00 
-1.0071250e-01 6.3102871e-01 0.0000000e+00 
-8.0972258e-02 6.4458120e-01 0.0000000e+00 
-8.8148944e-02 6.4324541e-01 0.0000000e+00 
-9.5326429e-02 6.4191313e-01 0.0000000e+00 
-1.0250568e-01 6.4058401e-01 0.0000000e+00 
-8.2733896e-02 6.5416798e-01 0.0000000e+00 
-8.9922956e-02 6.5282765e-01 0.0000000e+00 
-9.7112761e-02 6.5149063e-01 0.0000000e+00 
-1.0430424e-01 6.5015658e-01 0.0000000e+00 
-8.4502722e-02 6.6377028e-01 0.0000000e+00 
-9.1703446e-02 6.6242565e-01 0.0000000e+00 
-9.8904863e-02 6.6108416e-01 0.0000000e+00 
-1.0610787e-01 6.5974545e-01 0.0000000e+00 
-8.6278354e-02 6.7338716e-01 0.0000000e+00 
-9.3490056e-02 6.7203850e-01 0.0000000e+00 
-1.0070240e-01 6.7069278e-01 0.0000000e+00 
-1.0791626e-01 6.6934969e-01 0.0000000e+00 
-8.8060417e-02 6.8301776e-01 0.0000000e+00 
-9.5282436e-02 6.8166530e-01 0.0000000e+00 
-1.0250505e-01 6.8031561e-01 0.0000000e+00 
-1.0972910e-01 6.7896837e-01 0.0000000e+00 
-8.9848548e-02 6.9266122e-01 0.0000000e+00 
-9.7080251e-02 6.9130519e-01 0.0000000e+00 
-1.0431251e-01 6.8995176e-01 0.0000000e+00 
-1.1154611e-01 6.8860064e-01 0.0000000e+00 
-9.1642399e-02 7.0231673e-01 0.0000000e+00 
-9.8883176e-02 7.0095736e-01 0.0000000e+00 
-1.0612446e-01 6.9960043e-01 0.0000000e+00 
-1.1336702e-01 6.9824564e-01 0.0000000e+00 
-9.3441632e-02 7.1198351e-01 0.0000000e+00 
-1.0069090e-01 7.1062101e-01 0.0000000e+00 