# vtk DataFile Version 4.0
vtk output
ASCII
DATASET UNSTRUCTURED_GRID
POINTS 604 float
5.5000000e+00 5.9700000e+00 0.0000000e+00 
5.5000000e+00 5.9900000e+00 0.0000000e+00 
5.5266667e+00 5.9700000e+00 0.0000000e+00 
5.5266667e+00 5.9900000e+00 0.0000000e+00 
5.5000000e+00 6.0100000e+00 0.0000000e+00 
5.5266667e+00 6.0100000e+00 0.0000000e+00 
5.5533333e+00 5.9700000e+00 0.0000000e+00 
5.5533333e+00 5.9900000e+00 0.0000000e+00 
5.5000000e+00 6.0300000e+00 0.0000000e+00 
5.5266667e+00 6.0300000e+00 0.0000000e+00 
5.5533333e+00 6.0100000e+00 0.0000000e+00 
5.5800000e+00 5.9700000e+00 0.0000000e+00 
5.5533333e+00 6.0300000e+00 0.0000000e+00 
5.5800000e+00 5.9900000e+00 0.0000000e+00 
5.5800000e+00 6.0100000e+00 0.0000000e+00 
5.5800000e+00 6.0300000e+00 0.0000000e+00 
5.6066667e+00 5.9700000e+00 0.0000000e+00 
5.6066667e+00 5.9900000e+00 0.0000000e+00 
5.6066667e+00 6.0100000e+00 0.0000000e+00 
5.6066667e+00 6.0300000e+00 0.0000000e+00 
5.6333333e+00 5.9700000e+00 0.0000000e+00 
5.6333333e+00 5.9900000e+00 0.0000000e+00 
5.6333333e+00 6.0100000e+00 0.0000000e+00 
5.6333333e+00 6.0300000e+00 0.0000000e+00 
5.6600000e+00 5.9700000e+00 0.0000000e+00 
5.6600000e+00 5.9900000e+00 0.0000000e+00 
5.6600000e+00 6.0100000e+00 0.0000000e+00 
5.6600000e+00 6.0300000e+00 0.0000000e+00 
5.6866667e+00 5.9700000e+00 0.0000000e+00 
5.6866667e+00 5.9900000e+00 0.0000000e+00 
5.6866667e+00 6.0100000e+00 0.0000000e+00 
5.6866667e+00 6.0300000e+00 0.0000000e+00 
5.7133333e+00 5.9700000e+00 0.0000000e+00 
5.7133333e+00 5.9900000e+00 0.0000000e+00 
5.7133333e+00 6.0100000e+00 0.0000000e+00 
5.7133333e+00 6.0300000e+00 0.0000000e+00 
5.7400000e+00 5.9700000e+00 0.0000000e+00 
5.7400000e+00 5.9900000e+00 0.0000000e+00 
5.7400000e+00 6.0100000e+00 0.0000000e+00 
5.7400000e+00 6.0300000e+00 0.0000000e+00 
5.7666667e+00 5.9700000e+00 0.0000000e+00 
5.7666667e+00 5.9900000e+00 0.0000000e+00 
5.7666667e+00 6.0100000e+00 0.0000000e+00 
5.7666667e+00 6.0300000e+00 0.0000000e+00 
5.7933333e+00 5.9700000e+00 0.0000000e+00 
5.7933333e+00 5.9900000e+00 0.0000000e+00 
5.7933333e+00 6.0100000e+00 0.0000000e+00 
5.7933333e+00 6.0300000e+00 0.0000000e+00 
5.8200000e+00 5.9700000e+00 0.0000000e+00 
5.8200000e+00 5.9900000e+00 0.0000000e+00 
5.8200000e+00 6.0100000e+00 0.0000000e+00 
5.8200000e+00 6.0300000e+00 0.0000000e+00 
5.8466667e+00 5.9700000e+00 0.0000000e+00 
5.8466667e+00 5.9900000e+00 0.0000000e+00 
5.8466667e+00 6.0100000e+00 0.0000000e+00 
5.8466667e+00 6.0300000e+00 0.0000000e+00 
5.8733333e+00 5.9700000e+00 0.0000000e+00 
5.8733333e+00 5.9900000e+00 0.0000000e+00 
5.8733333e+00 6.0100000e+00 0.0000000e+00 
5.8733333e+00 6.0300000e+00 0.0000000e+00 
5.9000000e+00 5.9700000e+00 0.0000000e+00 
5.9000000e+00 5.9900000e+00 0.0000000e+00 
5.9000000e+00 6.0100000e+00 0.0000000e+00 
5.9000000e+00 6.0300000e+00 0.0000000e+00 
5.9266667e+00 5.9700000e+00 0.0000000e+00 
5.9266667e+00 5.9900000e+00 0.0000000e+00 
5.9266667e+00 6.0100000e+00 0.0000000e+00 
5.9266667e+00 6.0300000e+00 0.0000000e+00 
5.9533333e+00 5.9700000e+00 0.0000000e+00 
5.9533333e+00 5.9900000e+00 0.0000000e+00 
5.9533333e+00 6.0100000e+00 0.0000000e+00 
5.9533333e+00 6.0300000e+00 0.0000000e+00 
5.9800000e+00 5.9700000e+00 0.0000000e+00 
5.9800000e+00 5.9900000e+00 0.0000000e+00 
5.9800000e+00 6.0100000e+00 0.0000000e+00 
5.9800000e+00 6.0300000e+00 0.0000000e+00 
6.0066667e+00 5.9700000e+00 0.0000000e+00 
6.0066667e+00 5.9900000e+00 0.0000000e+00 
6.0066667e+00 6.0100000e+00 0.0000000e+00 
6.0066667e+00 6.0300000e+00 0.0000000e+00 
6.0333333e+00 5.9700000e+00 0.0000000e+00 
6.0333333e+00 5.9900000e+00 0.0000000e+00 
6.0333333e+00 6.0100000e+00 0.0000000e+00 
6.0333333e+00 6.0300000e+00 0.0000000e+00 
6.0600000e+00 5.9700000e+00 0.0000000e+00 
6.0600000e+00 5.9900000e+00 0.0000000e+00 
6.0600000e+00 6.0100000e+00 0.0000000e+00 
6.0600000e+00 6.0300000e+00 0.0000000e+00 
6.0866667e+00 5.9700000e+00 0.0000000e+00 
6.0866667e+00 5.9900000e+00 0.0000000e+00 
6.0866667e+00 6.0100000e+00 0.0000000e+00 
6.0866667e+00 6.0300000e+00 0.0000000e+00 
6.1133333e+00 5.9700000e+00 0.0000000e+00 
6.1133333e+00 5.9900000e+00 0.0000000e+00 
6.1133333e+00 6.0100000e+00 0.0000000e+00 
6.1133333e+00 6.0300000e+00 0.0000000e+00 
6.1400000e+00 5.9700000e+00 0.0000000e+00 
6.1400000e+00 5.9900000e+00 0.0000000e+00 
6.1400000e+00 6.0100000e+00 0.0000000e+00 
6.1400000e+00 6.0300000e+00 0.0000000e+00 
6.1666667e+00 5.9700000e+00 0.0000000e+00 
6.1666667e+00 5.9900000e+00 0.0000000e+00 
6.1666667e+00 6.0100000e+00 0.0000000e+00 
6.1666667e+00 6.0300000e+00 0.0000000e+00 
6.1933333e+00 5.9700000e+00 0.0000000e+00 
6.1933333e+00 5.9900000e+00 0.0000000e+00 
6.1933333e+00 6.0100000e+00 0.0000000e+00 
6.1933333e+00 6.0300000e+00 0.0000000e+00 
6.2200000e+00 5.9700000e+00 0.0000000e+00 
6.2200000e+00 5.9900000e+00 0.0000000e+00 
6.2200000e+00 6.0100000e+00 0.0000000e+00 
6.2200000e+00 6.0300000e+00 0.0000000e+00 
6.2466667e+00 5.9700000e+00 0.0000000e+00 
6.2466667e+00 5.9900000e+00 0.0000000e+00 
6.2466667e+00 6.0100000e+00 0.0000000e+00 
6.2466667e+00 6.0300000e+00 0.0000000e+00 
6.2733333e+00 5.9700000e+00 0.0000000e+00 
6.2733333e+00 5.9900000e+00 0.0000000e+00 
6.2733333e+00 6.0100000e+00 0.0000000e+00 
6.2733333e+00 6.0300000e+00 0.0000000e+00 
6.3000000e+00 5.9700000e+00 0.0000000e+00 
6.3000000e+00 5.9900000e+00 0.0000000e+00 
6.3000000e+00 6.0100000e+00 0.0000000e+00 
6.3000000e+00 6.0300000e+00 0.0000000e+00 
6.3266667e+00 5.9700000e+00 0.0000000e+00 
6.3266667e+00 5.9900000e+00 0.0000000e+00 
6.3266667e+00 6.0100000e+00 0.0000000e+00 
6.3266667e+00 6.0300000e+00 0.0000000e+00 
6.3533333e+00 5.9700000e+00 0.0000000e+00 
6.3533333e+00 5.9900000e+00 0.0000000e+00 
6.3533333e+00 6.0100000e+00 0.0000000e+00 
6.3533333e+00 6.0300000e+00 0.0000000e+00 
6.3800000e+00 5.9700000e+00 0.0000000e+00 
6.3800000e+00 5.9900000e+00 0.0000000e+00 
6.3800000e+00 6.0100000e+00 0.0000000e+00 
6.3800000e+00 6.0300000e+00 0.0000000e+00 
6.4066667e+00 5.9700000e+00 0.0000000e+00 
6.4066667e+00 5.9900000e+00 0.0000000e+00 
6.4066667e+00 6.0100000e+00 0.0000000e+00 
6.4066667e+00 6.0300000e+00 0.0000000e+00 
6.4333333e+00 5.9700000e+00 0.0000000e+00 
6.4333333e+00 5.9900000e+00 0.0000000e+00 
6.4333333e+00 6.0100000e+00 0.0000000e+00 
6.4333333e+00 6.0300000e+00 0.0000000e+00 
6.4600000e+00 5.9700000e+00 0.0000000e+00 
6.4600000e+00 5.9900000e+00 0.0000000e+00 
6.4600000e+00 6.0100000e+00 0.0000000e+00 
6.4600000e+00 6.0300000e+00 0.0000000e+00 
6.4866667e+00 5.9700000e+00 0.0000000e+00 
6.4866667e+00 5.9900000e+00 0.0000000e+00 
6.4866667e+00 6.0100000e+00 0.0000000e+00 
6.4866667e+00 6.0300000e+00 0.0000000e+00 
6.5133333e+00 5.9700000e+00 0.0000000e+00 
6.5133333e+00 5.9900000e+00 0.0000000e+00 
6.5133333e+00 6.0100000e+00 0.0000000e+00 
6.5133333e+00 6.0300000e+00 0.0000000e+00 
6.5400000e+00 5.9700000e+00 0.0000000e+00 
6.5400000e+00 5.9900000e+00 0.0000000e+00 
6.5400000e+00 6.0100000e+00 0.0000000e+00 
6.5400000e+00 6.0300000e+00 0.0000000e+00 
6.5666667e+00 5.9700000e+00 0.0000000e+00 
6.5666667e+00 5.9900000e+00 0.0000000e+00 
6.5666667e+00 6.0100000e+00 0.0000000e+00 
6.5666667e+00 6.0300000e+00 0.0000000e+00 
6.5933333e+00 5.9700000e+00 0.0000000e+00 
6.5933333e+00 5.9900000e+00 0.0000000e+00 
6.5933333e+00 6.0100000e+00 0.0000000e+00 
6.5933333e+00 6.0300000e+00 0.0000000e+00 
6.6200000e+00 5.9700000e+00 0.0000000e+00 
6.6200000e+00 5.9900000e+00 0.0000000e+00 
6.6200000e+00 6.0100000e+00 0.0000000e+00 
6.6200000e+00 6.0300000e+00 0.0000000e+00 
6.6466667e+00 5.9700000e+00 0.0000000e+00 
6.6466667e+00 5.9900000e+00 0.0000000e+00 
6.6466667e+00 6.0100000e+00 0.0000000e+00 
6.6466667e+00 6.0300000e+00 0.0000000e+00 
6.6733333e+00 5.9700000e+00 0.0000000e+00 
6.6733333e+00 5.9900000e+00 0.0000000e+00 
6.6733333e+00 6.0100000e+00 0.0000000e+00 
6.6733333e+00 6.0300000e+00 0.0000000e+00 
6.7000000e+00 5.9700000e+00 0.0000000e+00 
6.7000000e+00 5.9900000e+00 0.0000000e+00 
6.7000000e+00 6.0100000e+00 0.0000000e+00 
6.7000000e+00 6.0300000e+00 0.0000000e+00 
6.7266667e+00 5.9700000e+00 0.0000000e+00 
6.7266667e+00 5.9900000e+00 0.0000000e+00 
6.7266667e+00 6.0100000e+00 0.0000000e+00 
6.7266667e+00 6.0300000e+00 0.0000000e+00 
6.7533333e+00 5.9700000e+00 0.0000000e+00 
6.7533333e+00 5.9900000e+00 0.0000000e+00 
6.7533333e+00 6.0100000e+00 0.0000000e+00 
6.7533333e+00 6.0300000e+00 0.0000000e+00 
6.7800000e+00 5.9700000e+00 0.0000000e+00 
6.7800000e+00 5.9900000e+00 0.0000000e+00 
6.7800000e+00 6.0100000e+00 0.0000000e+00 
6.7800000e+00 6.0300000e+00 0.0000000e+00 
6.8066667e+00 5.9700000e+00 0.0000000e+00 
6.8066667e+00 5.9900000e+00 0.0000000e+00 
6.8066667e+00 6.0100000e+00 0.0000000e+00 
6.8066667e+00 6.0300000e+00 0.0000000e+00 
6.8333333e+00 5.9700000e+00 0.0000000e+00 
6.8333333e+00 5.9900000e+00 0.0000000e+00 
6.8333333e+00 6.0100000e+00 0.0000000e+00 
6.8333333e+00 6.0300000e+00 0.0000000e+00 
6.8600000e+00 5.9700000e+00 0.0000000e+00 
6.8600000e+00 5.9900000e+00 0.0000000e+00 
6.8600000e+00 6.0100000e+00 0.0000000e+00 
6.8600000e+00 6.0300000e+00 0.0000000e+00 
6.8866667e+00 5.9700000e+00 0.0000000e+00 
6.8866667e+00 5.9900000e+00 0.0000000e+00 
6.8866667e+00 6.0100000e+00 0.0000000e+00 
6.8866667e+00 6.0300000e+00 0.0000000e+00 
6.9133333e+00 5.9700000e+00 0.0000000e+00 
6.9133333e+00 5.9900000e+00 0.0000000e+00 
6.9133333e+00 6.0100000e+00 0.0000000e+00 
6.9133333e+00 6.0300000e+00 0.0000000e+00 
6.9400000e+00 5.9700000e+00 0.0000000e+00 
6.9400000e+00 5.9900000e+00 0.0000000e+00 
6.9400000e+00 6.0100000e+00 0.0000000e+00 
6.9400000e+00 6.0300000e+00 0.0000000e+00 
6.9666667e+00 5.9700000e+00 0.0000000e+00 
6.9666667e+00 5.9900000e+00 0.0000000e+00 
6.9666667e+00 6.0100000e+00 0.0000000e+00 
6.9666667e+00 6.0300000e+00 0.0000000e+00 
6.9933333e+00 5.9700000e+00 0.0000000e+00 
6.9933333e+00 5.9900000e+00 0.0000000e+00 
6.9933333e+00 6.0100000e+00 0.0000000e+00 
6.9933333e+00 6.0300000e+00 0.0000000e+00 
7.0200000e+00 5.9700000e+00 0.0000000e+00 
7.0200000e+00 5.9900000e+00 0.0000000e+00 
[...]
POINT_DATA 604
FIELD FieldData 2
DISPLACEMENT 3 604  float
0.0000000e+00 0.0000000e+00 0.0000000e+00 
0.0000000e+00 0.0000000e+00 0.0000000e+00 
3.4873822e-06 -2.5690778e-07 0.0000000e+00 
1.6057738e-06 -1.2086460e-06 0.0000000e+00 
0.0000000e+00 0.0000000e+00 0.0000000e+00 
-1.1066031e-06 -1.2586124e-06 0.0000000e+00 
9.3676139e-06 2.9473281e-06 0.0000000e+00 
3.7849071e-06 1.7474059e-06 0.0000000e+00 
0.0000000e+00 0.0000000e+00 0.0000000e+00 
-2.9522348e-06 -4.2273620e-07 0.0000000e+00 
-2.7394959e-06 1.6869167e-06 0.0000000e+00 
1.7344571e-05 1.2203164e-05 0.0000000e+00 
-8.3167140e-06 2.7756502e-06 0.0000000e+00 
6.6092462e-06 1.0621605e-05 0.0000000e+00 
-5.0294547e-06 1.0562784e-05 0.0000000e+00 
-1.5766124e-05 1.2027524e-05 0.0000000e+00 
2.7372325e-05 2.9256520e-05 0.0000000e+00 
1.0121734e-05 2.7316053e-05 0.0000000e+00 
-8.0198856e-06 2.7252431e-05 0.0000000e+00 
-2.5272186e-05 2.9067961e-05 0.0000000e+00 
3.9410431e-05 5.5932748e-05 0.0000000e+00 
1.4297331e-05 5.3633475e-05 0.0000000e+00 
-1.1691114e-05 5.3560977e-05 0.0000000e+00 
-3.6807485e-05 5.5718441e-05 0.0000000e+00 
5.3415789e-05 9.4011008e-05 0.0000000e+00 
1.9119184e-05 9.1354197e-05 0.0000000e+00 
-1.6038380e-05 9.1267392e-05 0.0000000e+00 
-5.0341287e-05 9.3754999e-05 0.0000000e+00 
6.9344137e-05 1.4524056e-04 0.0000000e+00 
2.4566696e-05 1.4222543e-04 0.0000000e+00 
-2.1057879e-05 1.4211725e-04 0.0000000e+00 
-6.5845644e-05 1.4492167e-04 0.0000000e+00 
8.7148672e-05 2.1133883e-04 0.0000000e+00 
3.0617063e-05 2.0796259e-04 0.0000000e+00 
-2.6748401e-05 2.0782392e-04 0.0000000e+00 
-8.3295482e-05 2.1092972e-04 0.0000000e+00 
1.0677991e-04 2.9399142e-04 0.0000000e+00 
3.7244685e-05 2.9024923e-04 0.0000000e+00 
-3.3111523e-05 2.9006881e-04 0.0000000e+00 
-1.0266831e-04 2.9345858e-04 0.0000000e+00 
1.2818486e-04 3.9485236e-04 0.0000000e+00 
4.4421029e-05 3.9073688e-04 0.0000000e+00 
-4.0151820e-05 3.9050111e-04 0.0000000e+00 
-1.2394481e-04 3.9415487e-04 0.0000000e+00 
1.5130819e-04 5.1554360e-04 0.0000000e+00 
5.2114137e-05 5.1104522e-04 0.0000000e+00 
-4.7877118e-05 5.1073804e-04 0.0000000e+00 
-1.4710879e-04 5.1463360e-04 0.0000000e+00 
1.7608967e-04 6.5765570e-04 0.0000000e+00 
6.0288836e-05 6.5276193e-04 0.0000000e+00 
-5.6298689e-05 6.5236455e-04 0.0000000e+00 
-1.7214751e-04 6.5647674e-04 0.0000000e+00 
2.0246710e-04 8.2274683e-04 0.0000000e+00 
6.8906169e-05 8.1744258e-04 0.0000000e+00 
-6.5431437e-05 8.1693359e-04 0.0000000e+00 
-1.9905198e-04 8.2123488e-04 0.0000000e+00 
2.3037358e-04 1.0123440e-03 0.0000000e+00 
7.7923650e-05 1.0066111e-03 0.0000000e+00 
-7.5294102e-05 1.0059660e-03 0.0000000e+00 
-2.2781713e-04 1.0104256e-03 0.0000000e+00 
2.5973934e-04 1.2279422e-03 0.0000000e+00 
8.7294739e-05 1.2217596e-03 0.0000000e+00 
-8.5909370e-05 1.2209512e-03 0.0000000e+00 
-2.5844192e-04 1.2255357e-03 0.0000000e+00 
2.9048985e-04 1.4710053e-03 0.0000000e+00 
9.6968888e-05 1.4643487e-03 0.0000000e+00 
-9.7304096e-05 1.4633465e-03 0.0000000e+00 
-2.9092938e-04 1.4680193e-03 0.0000000e+00 
3.2254645e-04 1.7429653e-03 0.0000000e+00 
1.0689153e-04 1.7358073e-03 0.0000000e+00 
-1.0950920e-04 1.7345776e-03 0.0000000e+00 
-3.2528684e-04 1.7392986e-03 0.0000000e+00 
3.5582730e-04 2.0452230e-03 0.0000000e+00 
1.1700373e-04 2.0375329e-03 0.0000000e+00 
-1.2255997e-04 2.0360389e-03 0.0000000e+00 
-3.6152613e-04 2.0407653e-03 0.0000000e+00 
3.9024520e-04 2.3791480e-03 0.0000000e+00 
1.2724242e-04 2.3708919e-03 0.0000000e+00 
-1.3649611e-04 2.3690933e-03 0.0000000e+00 
-3.9966341e-04 2.3737785e-03 0.0000000e+00 
4.2570942e-04 2.7460785e-03 0.0000000e+00 
1.3754022e-04 2.7372189e-03 0.0000000e+00 
-1.5136178e-04 2.7350724e-03 0.0000000e+00 
-4.3971960e-04 2.7396672e-03 0.0000000e+00 
4.6212597e-04 3.1473226e-03 0.0000000e+00 
1.4782530e-04 3.1378185e-03 0.0000000e+00 
-1.6720567e-04 3.1352770e-03 0.0000000e+00 
-4.8172045e-04 3.1397283e-03 0.0000000e+00 
4.9939527e-04 3.5841567e-03 0.0000000e+00 
1.5802137e-04 3.5739642e-03 0.0000000e+00 
-1.8408096e-04 3.5709776e-03 0.0000000e+00 
-5.2569611e-04 3.5752292e-03 0.0000000e+00 
5.3741268e-04 4.0578276e-03 0.0000000e+00 
1.6804751e-04 4.0468989e-03 0.0000000e+00 
-2.0204543e-04 4.0434135e-03 0.0000000e+00 
-5.7168085e-04 4.0474054e-03 0.0000000e+00 
5.7607019e-04 4.5695497e-03 0.0000000e+00 
1.7781790e-04 4.5578342e-03 0.0000000e+00 
-2.2116126e-04 4.5537931e-03 0.0000000e+00 
-6.1971378e-04 4.5574622e-03 0.0000000e+00 
6.1525226e-04 5.1205075e-03 0.0000000e+00 
1.8724249e-04 5.1079507e-03 0.0000000e+00 
-2.4149528e-04 5.1032933e-03 0.0000000e+00 
-6.6983784e-04 5.1065729e-03 0.0000000e+00 
6.5484191e-04 5.7118525e-03 0.0000000e+00 
1.9622645e-04 5.6983969e-03 0.0000000e+00 
-2.6311870e-04 5.6930596e-03 0.0000000e+00 
-7.2210115e-04 5.6958799e-03 0.0000000e+00 
6.9471641e-04 6.3447066e-03 0.0000000e+00 
2.0467083e-04 6.3302910e-03 0.0000000e+00 
-2.8610738e-04 6.3242066e-03 0.0000000e+00 
-7.7655608e-04 6.3264943e-03 0.0000000e+00 
7.3474968e-04 7.0201596e-03 0.0000000e+00 
2.1247213e-04 7.0047198e-03 0.0000000e+00 
-3.1054148e-04 6.9978179e-03 0.0000000e+00 
-8.3325980e-04 6.9994966e-03 0.0000000e+00 
7.7481021e-04 7.7392712e-03 0.0000000e+00 
2.1952266e-04 7.7227395e-03 0.0000000e+00 
-3.3650563e-04 7.7149463e-03 0.0000000e+00 
-8.9227353e-04 7.7159361e-03 0.0000000e+00 
8.1476329e-04 8.5030690e-03 0.0000000e+00 
2.2571027e-04 8.4853748e-03 0.0000000e+00 
-3.6408867e-04 8.4766138e-03 0.0000000e+00 
-9.5366311e-04 8.4768318e-03 0.0000000e+00 
8.5446905e-04 9.3125508e-03 0.0000000e+00 
2.3091856e-04 9.2936202e-03 0.0000000e+00 
-3.9338373e-04 9.2838112e-03 0.0000000e+00 
-1.0174982e-03 9.2831713e-03 0.0000000e+00 
8.9378345e-04 1.0168683e-02 0.0000000e+00 
2.3502721e-04 1.0148438e-02 0.0000000e+00 
-4.2448791e-04 1.0137498e-02 0.0000000e+00 
-1.0838525e-03 1.0135911e-02 0.0000000e+00 
9.3255945e-04 1.1072399e-02 0.0000000e+00 
2.3791172e-04 1.1050761e-02 0.0000000e+00 
-4.5750237e-04 1.1038605e-02 0.0000000e+00 
-1.1528042e-03 1.1035978e-02 0.0000000e+00 
9.7064499e-04 1.2024603e-02 0.0000000e+00 
2.3944390e-04 1.2001490e-02 0.0000000e+00 
-4.9253214e-04 1.1988027e-02 0.0000000e+00 
-1.2244348e-03 1.1984267e-02 0.0000000e+00 
1.0078849e-03 1.3026169e-02 0.0000000e+00 
2.3949214e-04 1.3001494e-02 0.0000000e+00 
-5.2968610e-04 1.2986634e-02 0.0000000e+00 
-1.2988304e-03 1.2981642e-02 0.0000000e+00 
1.0441232e-03 1.4077938e-02 0.0000000e+00 
2.3792098e-04 1.4051612e-02 0.0000000e+00 
-5.6907679e-04 1.4035261e-02 0.0000000e+00 
-1.3760809e-03 1.4028937e-02 0.0000000e+00 
1.0791976e-03 1.5180722e-02 0.0000000e+00 
2.3459165e-04 1.5152656e-02 0.0000000e+00 
-6.1082024e-04 1.5134716e-02 0.0000000e+00 
-1.4562795e-03 1.5126957e-02 0.0000000e+00 
1.1129419e-03 1.6335303e-02 0.0000000e+00 
2.2936172e-04 1.6305402e-02 0.0000000e+00 
-6.5503578e-04 1.6285775e-02 0.0000000e+00 
-1.5395221e-03 1.6276475e-02 0.0000000e+00 
1.1451884e-03 1.7542430e-02 0.0000000e+00 
2.2208502e-04 1.7510600e-02 0.0000000e+00 
-7.0184569e-04 1.7489183e-02 0.0000000e+00 
-1.6259079e-03 1.7478235e-02 0.0000000e+00 
1.1757613e-03 1.8802821e-02 0.0000000e+00 
2.1261287e-04 1.8768964e-02 0.0000000e+00 
-7.5137528e-04 1.8745654e-02 0.0000000e+00 
-1.7155375e-03 1.8732948e-02 0.0000000e+00 
1.2044870e-03 2.0117161e-02 0.0000000e+00 
2.0079339e-04 2.0081178e-02 0.0000000e+00 
-8.0375251e-04 2.0055870e-02 0.0000000e+00 
-1.8085159e-03 2.0041294e-02 0.0000000e+00 
1.2311877e-03 2.1486106e-02 0.0000000e+00 
1.8647268e-04 2.1447894e-02 0.0000000e+00 
-8.5910809e-04 2.1420481e-02 0.0000000e+00 
-1.9049500e-03 2.1403921e-02 0.0000000e+00 
1.2556845e-03 2.2910278e-02 0.0000000e+00 
1.6949428e-04 2.2869735e-02 0.0000000e+00 
-9.1757500e-04 2.2840106e-02 0.0000000e+00 
-2.0049497e-03 2.2821448e-02 0.0000000e+00 
1.2777947e-03 2.4390269e-02 0.0000000e+00 
1.4969977e-04 2.4347291e-02 0.0000000e+00 
-9.7928843e-04 2.4315336e-02 0.0000000e+00 
-2.1086266e-03 2.4294462e-02 0.0000000e+00 
1.2973351e-03 2.5926639e-02 0.0000000e+00 
1.2692855e-04 2.5881119e-02 0.0000000e+00 
-1.0443855e-03 2.5846726e-02 0.0000000e+00 
-2.2160945e-03 2.5823518e-02 0.0000000e+00 
1.3141196e-03 2.7519917e-02 0.0000000e+00 
1.0101817e-04 2.7471749e-02 0.0000000e+00 
-1.1130049e-03 2.7434805e-02 0.0000000e+00 
-2.3274685e-03 2.7409142e-02 0.0000000e+00 
1.3279604e-03 2.9170601e-02 0.0000000e+00 
7.1804960e-05 2.9119675e-02 0.0000000e+00 
-1.1852869e-03 2.9080066e-02 0.0000000e+00 
-2.4428648e-03 2.9051829e-02 0.0000000e+00 
1.3386691e-03 3.0879155e-02 0.0000000e+00 
3.9123722e-05 3.0825363e-02 0.0000000e+00 
-1.2613727e-03 3.0782973e-02 0.0000000e+00 
-2.5624013e-03 3.0752040e-02 0.0000000e+00 
1.3460555e-03 3.2646013e-02 0.0000000e+00 
2.8084183e-06 3.2589245e-02 0.0000000e+00 
-1.3414048e-03 3.2543958e-02 0.0000000e+00 
-2.6861962e-03 3.2510207e-02 0.0000000e+00 
1.3499294e-03 3.4471574e-02 0.0000000e+00 
-3.7307883e-05 3.4411721e-02 0.0000000e+00 
-1.4255260e-03 3.4363421e-02 0.0000000e+00 
-2.8143686e-03 3.4326729e-02 0.0000000e+00 
1.3500990e-03 3.6356210e-02 0.0000000e+00 
-8.1392437e-05 3.6293160e-02 0.0000000e+00 
-1.5138797e-03 3.6241731e-02 0.0000000e+00 
-2.9470379e-03 3.6201976e-02 0.0000000e+00 
1.3463722e-03 3.8300255e-02 0.0000000e+00 
-1.2961216e-04 3.8233899e-02 0.0000000e+00 
-1.6066095e-03 3.8179224e-02 0.0000000e+00 
-3.0843238e-03 3.8136282e-02 0.0000000e+00 
1.3385623e-03 4.0304016e-02 0.0000000e+00 
-1.8213441e-04 4.0234243e-02 0.0000000e+00 
-1.7038590e-03 4.0176206e-02 0.0000000e+00 
-3.2263471e-03 4.0129954e-02 0.0000000e+00 
1.3264773e-03 4.2367766e-02 0.0000000e+00 
-2.3912593e-04 4.2294466e-02 0.0000000e+00 
-1.8057714e-03 4.2232951e-02 0.0000000e+00 
-3.3732270e-03 4.2183268e-02 0.0000000e+00 
1.3099257e-03 4.4491748e-02 0.0000000e+00 
-3.0075353e-04 4.4414812e-02 0.0000000e+00 
-1.9124894e-03 4.4349702e-02 0.0000000e+00 
-3.5250814e-03 4.4296466e-02 0.0000000e+00 
1.2887182e-03 4.6676168e-02 0.0000000e+00 
-3.6718394e-04 4.6595488e-02 0.0000000e+00 
-2.0241539e-03 4.6526671e-02 0.0000000e+00 
-3.6820270e-03 4.6469759e-02 0.0000000e+00 
1.2626596e-03 4.8921202e-02 0.0000000e+00 
-4.3858207e-04 4.8836672e-02 0.0000000e+00 
-2.1409051e-03 4.8764032e-02 0.0000000e+00 
-3.8441770e-03 4.8703324e-02 0.0000000e+00 
1.2315632e-03 5.1226988e-02 0.0000000e+00 
-5.1511176e-04 5.1138501e-02 0.0000000e+00 
-2.2628808e-03 5.1061927e-02 0.0000000e+00 
-4.0116445e-03 5.0997306e-02 0.0000000e+00 
1.1952421e-03 5.3593632e-02 0.0000000e+00 
-5.9693429e-04 5.3501084e-02 0.0000000e+00 
-2.3902172e-03 5.3420466e-02 0.0000000e+00 
-4.1845402e-03 5.3351813e-02 0.0000000e+00 
1.1535126e-03 5.6021203e-02 0.0000000e+00 
-6.8420872e-04 5.5924494e-02 0.0000000e+00 
-2.5230482e-03 5.5839722e-02 0.0000000e+00 
-4.3629728e-03 5.5766922e-02 0.0000000e+00 
1.1061924e-03 5.8509741e-02 0.0000000e+00 
-7.7709190e-04 5.8408769e-02 0.0000000e+00 
-2.6615050e-03 5.8319738e-02 0.0000000e+00 
-4.5470480e-03 5.8242677e-02 0.0000000e+00 
1.0531015e-03 6.1059249e-02 0.0000000e+00 
-8.7573762e-04 6.0953916e-02 0.0000000e+00 
-2.8057157e-03 6.0860520e-02 0.0000000e+00 
-4.7368679e-03 6.0779088e-02 0.0000000e+00 
9.9406374e-04 6.3669692e-02 0.0000000e+00 
-9.8029666e-04 6.3559905e-02 0.0000000e+00 
-2.9558052e-03 6.3462042e-02 0.0000000e+00 
-4.9325312e-03 6.3376130e-02 0.0000000e+00 
9.2890530e-04 6.6341005e-02 0.0000000e+00 
-1.0909162e-03 6.6226670e-02 0.0000000e+00 
-3.1118943e-03 6.6124242e-02 0.0000000e+00 
-5.1341330e-03 6.6033743e-02 0.0000000e+00 
8.5745611e-04 6.9073084e-02 0.0000000e+00 
-1.2077386e-03 6.8954112e-02 0.0000000e+00 
-3.2741003e-03 6.8847023e-02 0.0000000e+00 
-5.3417644e-03 6.8751835e-02 0.0000000e+00 
7.7955677e-04 7.1865794e-02 0.0000000e+00 
-1.3309029e-03 7.1742098e-02 0.0000000e+00 
-3.4425363e-03 7.1630255e-02 0.0000000e+00 
-5.5555137e-03 7.1530278e-02 0.0000000e+00 
6.9504496e-04 7.4718963e-02 0.0000000e+00 
-1.4605429e-03 7.4590462e-02 0.0000000e+00 
-3.6173108e-03 7.4473775e-02 0.0000000e+00 
-5.7754632e-03 7.4368912e-02 0.0000000e+00 
6.0376546e-04 7.7632386e-02 0.0000000e+00 
-1.5967888e-03 7.7499000e-02 0.0000000e+00 
-3.7985274e-03 7.7377385e-02 0.0000000e+00 
-6.0016900e-03 7.7267544e-02 0.0000000e+00 
5.0556740e-04 8.0605821e-02 0.0000000e+00 
-1.7397662e-03 8.0467476e-02 0.0000000e+00 
-3.9862840e-03 8.0340850e-02 0.0000000e+00 
-6.2342647e-03 8.0225943e-02 0.0000000e+00 
4.0029760e-04 8.3638987e-02 0.0000000e+00 
-1.8895945e-03 8.3495613e-02 0.0000000e+00 
-4.1806728e-03 8.3363900e-02 0.0000000e+00 
-6.4732513e-03 8.3243843e-02 0.0000000e+00 
2.8781758e-04 8.6731566e-02 0.0000000e+00 
-2.0463876e-03 8.6583098e-02 0.0000000e+00 
-4.3817799e-03 8.6446226e-02 0.0000000e+00 
-6.7187084e-03 8.6320938e-02 0.0000000e+00 
1.6799397e-04 8.9883205e-02 0.0000000e+00 
-2.2102525e-03 8.9729583e-02 0.0000000e+00 
-4.5896855e-03 8.9587484e-02 0.0000000e+00 
-6.9706895e-03 8.9456891e-02 0.0000000e+00 
4.0700048e-05 9.3093514e-02 0.0000000e+00 
-2.3812889e-03 9.2934681e-02 0.0000000e+00 
-4.8044631e-03 9.2787293e-02 0.0000000e+00 
-7.2292414e-03 9.2651326e-02 0.0000000e+00 
-9.4183025e-05 9.6362066e-02 0.0000000e+00 
-2.5595900e-03 9.6197974e-02 0.0000000e+00 
-5.0261795e-03 9.6045239e-02 0.0000000e+00 
-7.4944047e-03 9.5903834e-02 0.0000000e+00 
-2.3676733e-04 9.9688404e-02 0.0000000e+00 
-2.7452419e-03 9.9519006e-02 0.0000000e+00 
-5.2548946e-03 9.9360872e-02 0.0000000e+00 
-7.7662130e-03 9.9213969e-02 0.0000000e+00 
-3.8715746e-04 1.0307203e-01 0.0000000e+00 
-2.9383226e-03 1.0289729e-01 0.0000000e+00 
-5.4906611e-03 1.0273371e-01 0.0000000e+00 
-8.0446935e-03 1.0258125e-01 0.0000000e+00 
-5.4544845e-04 1.0651242e-01 0.0000000e+00 
-3.1389030e-03 1.0633229e-01 0.0000000e+00 
-5.7335245e-03 1.0616323e-01 0.0000000e+00 
-8.3298664e-03 1.0600518e-01 0.0000000e+00 
-7.1172820e-04 1.1000900e-01 0.0000000e+00 
-3.3470460e-03 1.0982346e-01 0.0000000e+00 
-5.9835229e-03 1.0964888e-01 0.0000000e+00 
-8.6217448e-03 1.0948519e-01 0.0000000e+00 
-8.8607579e-04 1.1356118e-01 0.0000000e+00 
-3.5628062e-03 1.1337021e-01 0.0000000e+00 
-6.2406866e-03 1.1319008e-01 0.0000000e+00 
-8.9203346e-03 1.1302072e-01 0.0000000e+00 
-1.0685617e-03 1.1716833e-01 0.0000000e+00 
-3.7862301e-03 1.1697192e-01 0.0000000e+00 
-6.5050381e-03 1.1678621e-01 0.0000000e+00 
-9.2256343e-03 1.1661115e-01 0.0000000e+00 
-1.2592473e-03 1.2082979e-01 0.0000000e+00 
-4.0173555e-03 1.2062792e-01 0.0000000e+00 
-6.7765917e-03 1.2043663e-01 0.0000000e+00 
-9.5376353e-03 1.2025584e-01 0.0000000e+00 
-1.4581858e-03 1.2454487e-01 0.0000000e+00 
-4.2562111e-03 1.2433754e-01 0.0000000e+00 
-7.0553543e-03 1.2414065e-01 0.0000000e+00 
-9.8563212e-03 1.2395411e-01 0.0000000e+00 
-1.6654144e-03 1.2831285e-01 0.0000000e+00 
-4.5028175e-03 1.2810006e-01 0.0000000e+00 
-7.3413242e-03 1.2789756e-01 0.0000000e+00 
-1.0181670e-02 1.2770528e-01 0.0000000e+00 
-1.8809694e-03 1.3213298e-01 0.0000000e+00 
-4.7571856e-03 1.3191474e-01 0.0000000e+00 
-7.6344919e-03 1.3170664e-01 0.0000000e+00 
-1.0513650e-02 1.3150860e-01 0.0000000e+00 
-2.1048711e-03 1.3600449e-01 0.0000000e+00 
-5.0193189e-03 1.3578080e-01 0.0000000e+00 
-7.9348395e-03 1.3556711e-01 0.0000000e+00 
-1.0852223e-02 1.3536332e-01 0.0000000e+00 
-2.3371352e-03 1.3992656e-01 0.0000000e+00 
-5.2892125e-03 1.3969746e-01 0.0000000e+00 
-8.2423406e-03 1.3947819e-01 0.0000000e+00 
-1.1197340e-02 1.3926866e-01 0.0000000e+00 
-2.5777746e-03 1.4389837e-01 0.0000000e+00 
-5.5668517e-03 1.4366388e-01 0.0000000e+00 
-8.5569602e-03 1.4343906e-01 0.0000000e+00 
-1.1548946e-02 1.4322380e-01 0.0000000e+00 
-2.8267835e-03 1.4791906e-01 0.0000000e+00 
-5.8522136e-03 1.4767920e-01 0.0000000e+00 
-8.8786551e-03 1.4744885e-01 0.0000000e+00 
-1.1906978e-02 1.4722789e-01 0.0000000e+00 
-3.0841460e-03 1.5198772e-01 0.0000000e+00 
-6.1452651e-03 1.5174255e-01 0.0000000e+00 
-9.2073738e-03 1.5150671e-01 0.0000000e+00 
-1.2271366e-02 1.5128007e-01 0.0000000e+00 
-3.3498380e-03 1.5610347e-01 0.0000000e+00 
-6.4459639e-03 1.5585302e-01 0.0000000e+00 
-9.5430569e-03 1.5561173e-01 0.0000000e+00 
-1.2642032e-02 1.5537946e-01 0.0000000e+00 
-3.6238236e-03 1.6026535e-01 0.0000000e+00 
-6.7542577e-03 1.6000969e-01 0.0000000e+00 
-9.8856368e-03 1.5976299e-01 0.0000000e+00 
-1.3018895e-02 1.5952512e-01 0.0000000e+00 
-3.9060561e-03 1.6447242e-01 0.0000000e+00 
-7.0700869e-03 1.6421159e-01 0.0000000e+00 
-1.0235039e-02 1.6395954e-01 0.0000000e+00 
-1.3401864e-02 1.6371614e-01 0.0000000e+00 
-4.1964810e-03 1.6872371e-01 0.0000000e+00 
-7.3933829e-03 1.6845778e-01 0.0000000e+00 
-1.0591182e-02 1.6820044e-01 0.0000000e+00 
-1.3790846e-02 1.6795155e-01 0.0000000e+00 
-4.4950331e-03 1.7301823e-01 0.0000000e+00 
-7.7240685e-03 1.7274727e-01 0.0000000e+00 
-1.0953976e-02 1.7248470e-01 0.0000000e+00 
-1.4185738e-02 1.7223039e-01 0.0000000e+00 
-4.8016398e-03 1.7735498e-01 0.0000000e+00 
-8.0620590e-03 1.7707906e-01 0.0000000e+00 
-1.1323326e-02 1.7681133e-01 0.0000000e+00 
-1.4586435e-02 1.7655166e-01 0.0000000e+00 
-5.1162151e-03 1.8173295e-01 0.0000000e+00 
-8.4072617e-03 1.8145214e-01 0.0000000e+00 
-1.1699129e-02 1.8117933e-01 0.0000000e+00 
-1.4992825e-02 1.8091438e-01 0.0000000e+00 
-5.4386708e-03 1.8615110e-01 0.0000000e+00 
-8.7595763e-03 1.8586549e-01 0.0000000e+00 
-1.2081277e-02 1.8558768e-01 0.0000000e+00 
-1.5404790e-02 1.8531752e-01 0.0000000e+00 
-5.7689044e-03 1.9060840e-01 0.0000000e+00 
-9.1188959e-03 1.9031808e-01 0.0000000e+00 
-1.2469654e-02 1.9003536e-01 0.0000000e+00 
-1.5822206e-02 1.8976008e-01 0.0000000e+00 
-6.1068111e-03 1.9510381e-01 0.0000000e+00 
-9.4851073e-03 1.9480886e-01 0.0000000e+00 
-1.2864138e-02 1.9452132e-01 0.0000000e+00 
-1.6244945e-02 1.9424100e-01 0.0000000e+00 
-6.4522821e-03 1.9963625e-01 0.0000000e+00 
-9.8580899e-03 1.9933679e-01 0.0000000e+00 
-1.3264603e-02 1.9904451e-01 0.0000000e+00 
-1.6672870e-02 1.9875925e-01 0.0000000e+00 
-6.8051956e-03 2.0420467e-01 0.0000000e+00 
-1.0237717e-02 2.0390078e-01 0.0000000e+00 
-1.3670915e-02 2.0360387e-01 0.0000000e+00 
-1.7105842e-02 2.0331378e-01 0.0000000e+00 
-7.1654217e-03 2.0880799e-01 0.0000000e+00 
-1.0623856e-02 2.0849978e-01 0.0000000e+00 
-1.4082935e-02 2.0819835e-01 0.0000000e+00 
-1.7543720e-02 2.0790351e-01 0.0000000e+00 
-7.5328256e-03 2.1344512e-01 0.0000000e+00 
-1.1016366e-02 2.1313270e-01 0.0000000e+00 
-1.4500522e-02 2.1282685e-01 0.0000000e+00 
-1.7986356e-02 2.1252738e-01 0.0000000e+00 
-7.9072633e-03 2.1811499e-01 0.0000000e+00 
-1.1415103e-02 2.1779848e-01 0.0000000e+00 
-1.4923528e-02 2.1748831e-01 0.0000000e+00 
-1.8433602e-02 2.1718432e-01 0.0000000e+00 
-8.2885869e-03 2.2281651e-01 0.0000000e+00 
-1.1819917e-02 2.2249601e-01 0.0000000e+00 
-1.5351801e-02 2.2218165e-01 0.0000000e+00 
-1.8885304e-02 2.2187326e-01 0.0000000e+00 
-8.6766414e-03 2.2754859e-01 0.0000000e+00 
-1.2230652e-02 2.2722423e-01 0.0000000e+00 
-1.5785186e-02 2.2690579e-01 0.0000000e+00 
-1.9341308e-02 2.2659311e-01 0.0000000e+00 
-9.0712648e-03 2.3231014e-01 0.0000000e+00 
-1.2647148e-02 2.3198204e-01 0.0000000e+00 
-1.6223526e-02 2.3165965e-01 0.0000000e+00 
-1.9801457e-02 2.3134279e-01 0.0000000e+00 
-9.4722923e-03 2.3710010e-01 0.0000000e+00 
-1.3069244e-02 2.3676837e-01 0.0000000e+00 
-1.6666659e-02 2.3644215e-01 0.0000000e+00 
-2.0265594e-02 2.3612124e-01 0.0000000e+00 
-9.8795532e-03 2.4191738e-01 0.0000000e+00 
-1.3496772e-02 2.4158215e-01 0.0000000e+00 
-1.7114424e-02 2.4125221e-01 0.0000000e+00 
-2.0733560e-02 2.4092739e-01 0.0000000e+00 
-1.0292874e-02 2.4676091e-01 0.0000000e+00 
-1.3929562e-02 2.4642230e-01 0.0000000e+00 
-1.7566655e-02 2.4608878e-01 0.0000000e+00 
-2.1205195e-02 2.4576017e-01 0.0000000e+00 
-1.0712076e-02 2.5162963e-01 0.0000000e+00 
-1.4367444e-02 2.5128777e-01 0.0000000e+00 
-1.8023187e-02 2.5095080e-01 0.0000000e+00 
-2.1680339e-02 2.5061852e-01 0.0000000e+00 
-1.1136980e-02 2.5652249e-01 0.0000000e+00 
-1.4810243e-02 2.5617751e-01 0.0000000e+00 
-1.8483852e-02 2.5583720e-01 0.0000000e+00 
-2.2158833e-02 2.5550139e-01 0.0000000e+00 
-1.1567401e-02 2.6143845e-01 0.0000000e+00 
-1.5257783e-02 2.6109047e-01 0.0000000e+00 
-1.8948482e-02 2.6074696e-01 0.0000000e+00 