# vtk DataFile Version 4.0
vtk output
ASCII
DATASET UNSTRUCTURED_GRID
POINTS 604 float
5.5000000e+00 5.9700000e+00 0.0000000e+00 
5.5000000e+00 5.9900000e+00 0.0000000e+00 
5.5266667e+00 5.9700000e+00 0.0000000e+00 
5.5266667e+00 5.9900000e+00 0.0000000e+00 
5.5000000e+00 6.0100000e+00 0.0000000e+00 
5.5266667e+00 6.0100000e+00 0.0000000e+00 
5.5533333e+00 5.9700000e+00 0.0000000e+00 
5.5533333e+00 5.9900000e+00 0.0000000e+00 
5.5000000e+00 6.0300000e+00 0.0000000e+00 
5.5266667e+00 6.0300000e+00 0.0000000e+00 
5.5533333e+00 6.0100000e+00 0.0000000e+00 
5.5800000e+00 5.9700000e+00 0.0000000e+00 
5.5533333e+00 6.0300000e+00 0.0000000e+00 
5.5800000e+00 5.9900000e+00 0.0000000e+00 
5.5800000e+00 6.0100000e+00 0.0000000e+00 
5.5800000e+00 6.0300000e+00 0.0000000e+00 
5.6066667e+00 5.9700000e+00 0.0000000e+00 
5.6066667e+00 5.9900000e+00 0.0000000e+00 
5.6066667e+00 6.0100000e+00 0.0000000e+00 
5.6066667e+00 6.0300000e+00 0.0000000e+00 
5.6333333e+00 5.9700000e+00 0.0000000e+00 
5.6333333e+00 5.9900000e+00 0.0000000e+00 
5.6333333e+00 6.0100000e+00 0.0000000e+00 
5.6333333e+00 6.0300000e+00 0.0000000e+00 
5.6600000e+00 5.9700000e+00 0.0000000e+00 
5.6600000e+00 5.9900000e+00 0.0000000e+00 
5.6600000e+00 6.0100000e+00 0.0000000e+00 
5.6600000e+00 6.0300000e+00 0.0000000e+00 
5.6866667e+00 5.9700000e+00 0.0000000e+00 
5.6866667e+00 5.9900000e+00 0.0000000e+00 
5.6866667e+00 6.0100000e+00 0.0000000e+00 
5.6866667e+00 6.0300000e+00 0.0000000e+00 
5.7133333e+00 5.9700000e+00 0.0000000e+00 
5.7133333e+00 5.9900000e+00 0.0000000e+00 
5.7133333e+00 6.0100000e+00 0.0000000e+00 
5.7133333e+00 6.0300000e+00 0.0000000e+00 
5.7400000e+00 5.9700000e+00 0.0000000e+00 
5.7400000e+00 5.9900000e+00 0.0000000e+00 
5.7400000e+00 6.0100000e+00 0.0000000e+00 
5.7400000e+00 6.0300000e+00 0.0000000e+00 
5.7666667e+00 5.9700000e+00 0.0000000e+00 
5.7666667e+00 5.9900000e+00 0.0000000e+00 
5.7666667e+00 6.0100000e+00 0.0000000e+00 
5.7666667e+00 6.0300000e+00 0.0000000e+00 
5.7933333e+00 5.9700000e+00 0.0000000e+00 
5.7933333e+00 5.9900000e+00 0.0000000e+00 
5.7933333e+00 6.0100000e+00 0.0000000e+00 
5.7933333e+00 6.0300000e+00 0.0000000e+00 
5.8200000e+00 5.9700000e+00 0.0000000e+00 
5.8200000e+00 5.9900000e+00 0.0000000e+00 
5.8200000e+00 6.0100000e+00 0.0000000e+00 
5.8200000e+00 6.0300000e+00 0.0000000e+00 
5.8466667e+00 5.9700000e+00 0.0000000e+00 
5.8466667e+00 5.9900000e+00 0.0000000e+00 
5.8466667e+00 6.0100000e+00 0.0000000e+00 
5.8466667e+00 6.0300000e+00 0.0000000e+00 
5.8733333e+00 5.9700000e+00 0.0000000e+00 
5.8733333e+00 5.9900000e+00 0.0000000e+00 
5.8733333e+00 6.0100000e+00 0.0000000e+00 
5.8733333e+00 6.0300000e+00 0.0000000e+00 
5.9000000e+00 5.9700000e+00 0.0000000e+00 
5.9000000e+00 5.9900000e+00 0.0000000e+00 
5.9000000e+00 6.0100000e+00 0.0000000e+00 
5.9000000e+00 6.0300000e+00 0.0000000e+00 
5.9266667e+00 5.9700000e+00 0.0000000e+00 
5.9266667e+00 5.9900000e+00 0.0000000e+00 
5.9266667e+00 6.0100000e+00 0.0000000e+00 
5.9266667e+00 6.0300000e+00 0.0000000e+00 
5.9533333e+00 5.9700000e+00 0.0000000e+00 
5.9533333e+00 5.9900000e+00 0.0000000e+00 
5.9533333e+00 6.0100000e+00 0.0000000e+00 
5.9533333e+00 6.0300000e+00 0.0000000e+00 
5.9800000e+00 5.9700000e+00 0.0000000e+00 
5.9800000e+00 5.9900000e+00 0.0000000e+00 
5.9800000e+00 6.0100000e+00 0.0000000e+00 
5.9800000e+00 6.0300000e+00 0.0000000e+00 
6.0066667e+00 5.9700000e+00 0.0000000e+00 
6.0066667e+00 5.9900000e+00 0.0000000e+00 
6.0066667e+00 6.0100000e+00 0.0000000e+00 
6.0066667e+00 6.0300000e+00 0.0000000e+00 
6.0333333e+00 5.9700000e+00 0.0000000e+00 
6.0333333e+00 5.9900000e+00 0.0000000e+00 
6.0333333e+00 6.0100000e+00 0.0000000e+00 
6.0333333e+00 6.0300000e+00 0.0000000e+00 
6.0600000e+00 5.9700000e+00 0.0000000e+00 
6.0600000e+00 5.9900000e+00 0.0000000e+00 
6.0600000e+00 6.0100000e+00 0.0000000e+00 
6.0600000e+00 6.0300000e+00 0.0000000e+00 
6.0866667e+00 5.9700000e+00 0.0000000e+00 
6.0866667e+00 5.9900000e+00 0.0000000e+00 
6.0866667e+00 6.0100000e+00 0.0000000e+00 
6.0866667e+00 6.0300000e+00 0.0000000e+00 
6.1133333e+00 5.9700000e+00 0.0000000e+00 
6.1133333e+00 5.9900000e+00 0.0000000e+00 
6.1133333e+00 6.0100000e+00 0.0000000e+00 
6.1133333e+00 6.0300000e+00 0.0000000e+00 
6.1400000e+00 5.9700000e+00 0.0000000e+00 
6.1400000e+00 5.9900000e+00 0.0000000e+00 
6.1400000e+00 6.0100000e+00 0.0000000e+00 
6.1400000e+00 6.0300000e+00 0.0000000e+00 
6.1666667e+00 5.9700000e+00 0.0000000e+00 
6.1666667e+00 5.9900000e+00 0.0000000e+00 
6.1666667e+00 6.0100000e+00 0.0000000e+00 
6.1666667e+00 6.0300000e+00 0.0000000e+00 
6.1933333e+00 5.9700000e+00 0.0000000e+00 
6.1933333e+00 5.9900000e+00 0.0000000e+00 
6.1933333e+00 6.0100000e+00 0.0000000e+00 
6.1933333e+00 6.0300000e+00 0.0000000e+00 
6.2200000e+00 5.9700000e+00 0.0000000e+00 
6.2200000e+00 5.9900000e+00 0.0000000e+00 
6.2200000e+00 6.0100000e+00 0.0000000e+00 
6.2200000e+00 6.0300000e+00 0.0000000e+00 
6.2466667e+00 5.9700000e+00 0.0000000e+00 
6.2466667e+00 5.9900000e+00 0.0000000e+00 
6.2466667e+00 6.0100000e+00 0.0000000e+00 
6.2466667e+00 6.0300000e+00 0.0000000e+00 
6.2733333e+00 5.9700000e+00 0.0000000e+00 
6.2733333e+00 5.9900000e+00 0.0000000e+00 
6.2733333e+00 6.0100000e+00 0.0000000e+00 
6.2733333e+00 6.0300000e+00 0.0000000e+00 
6.3000000e+00 5.9700000e+00 0.0000000e+00 
6.3000000e+00 5.9900000e+00 0.0000000e+00 
6.3000000e+00 6.0100000e+00 0.0000000e+00 
6.3000000e+00 6.0300000e+00 0.0000000e+00 
6.3266667e+00 5.9700000e+00 0.0000000e+00 
6.3266667e+00 5.9900000e+00 0.0000000e+00 
6.3266667e+00 6.0100000e+00 0.0000000e+00 
6.3266667e+00 6.0300000e+00 0.0000000e+00 
6.3533333e+00 5.9700000e+00 0.0000000e+00 
6.3533333e+00 5.9900000e+00 0.0000000e+00 
6.3533333e+00 6.0100000e+00 0.0000000e+00 
6.3533333e+00 6.0300000e+00 0.0000000e+00 
6.3800000e+00 5.9700000e+00 0.0000000e+00 
6.3800000e+00 5.9900000e+00 0.0000000e+00 
6.3800000e+00 6.0100000e+00 0.0000000e+00 
6.3800000e+00 6.0300000e+00 0.0000000e+00 
6.4066667e+00 5.9700000e+00 0.0000000e+00 
6.4066667e+00 5.9900000e+00 0.0000000e+00 
6.4066667e+00 6.0100000e+00 0.0000000e+00 
6.4066667e+00 6.0300000e+00 0.0000000e+00 
6.4333333e+00 5.9700000e+00 0.0000000e+00 
6.4333333e+00 5.9900000e+00 0.0000000e+00 
6.4333333e+00 6.0100000e+00 0.0000000e+00 
6.4333333e+00 6.0300000e+00 0.0000000e+00 
6.4600000e+00 5.9700000e+00 0.0000000e+00 
6.4600000e+00 5.9900000e+00 0.0000000e+00 
6.4600000e+00 6.0100000e+00 0.0000000e+00 
6.4600000e+00 6.0300000e+00 0.0000000e+00 
6.4866667e+00 5.9700000e+00 0.0000000e+00 
6.4866667e+00 5.9900000e+00 0.0000000e+00 
6.4866667e+00 6.0100000e+00 0.0000000e+00 
6.4866667e+00 6.0300000e+00 0.0000000e+00 
6.5133333e+00 5.9700000e+00 0.0000000e+00 
6.5133333e+00 5.9900000e+00 0.0000000e+00 
6.5133333e+00 6.0100000e+00 0.0000000e+00 
6.5133333e+00 6.0300000e+00 0.0000000e+00 
6.5400000e+00 5.9700000e+00 0.0000000e+00 
6.5400000e+00 5.9900000e+00 0.0000000e+00 
6.5400000e+00 6.0100000e+00 0.0000000e+00 
6.5400000e+00 6.0300000e+00 0.0000000e+00 
6.5666667e+00 5.9700000e+00 0.0000000e+00 
6.5666667e+00 5.9900000e+00 0.0000000e+00 
6.5666667e+00 6.0100000e+00 0.0000000e+00 
6.5666667e+00 6.0300000e+00 0.0000000e+00 
6.5933333e+00 5.9700000e+00 0.0000000e+00 
6.5933333e+00 5.9900000e+00 0.0000000e+00 
6.5933333e+00 6.0100000e+00 0.0000000e+00 
6.5933333e+00 6.0300000e+00 0.0000000e+00 
6.6200000e+00 5.9700000e+00 0.0000000e+00 
6.6200000e+00 5.9900000e+00 0.0000000e+00 
6.6200000e+00 6.0100000e+00 0.0000000e+00 
6.6200000e+00 6.0300000e+00 0.0000000e+00 
6.6466667e+00 5.9700000e+00 0.0000000e+00 
6.6466667e+00 5.9900000e+00 0.0000000e+00 
6.6466667e+00 6.0100000e+00 0.0000000e+00 
6.6466667e+00 6.0300000e+00 0.0000000e+00 
6.6733333e+00 5.9700000e+00 0.0000000e+00 
6.6733333e+00 5.9900000e+00 0.0000000e+00 
6.6733333e+00 6.0100000e+00 0.0000000e+00 
6.6733333e+00 6.0300000e+00 0.0000000e+00 
6.7000000e+00 5.9700000e+00 0.0000000e+00 
6.7000000e+00 5.9900000e+00 0.0000000e+00 
6.7000000e+00 6.0100000e+00 0.0000000e+00 
6.7000000e+00 6.0300000e+00 0.0000000e+00 
6.7266667e+00 5.9700000e+00 0.0000000e+00 
6.7266667e+00 5.9900000e+00 0.0000000e+00 
6.7266667e+00 6.0100000e+00 0.0000000e+00 
6.7266667e+00 6.0300000e+00 0.0000000e+00 
6.7533333e+00 5.9700000e+00 0.0000000e+00 
6.7533333e+00 5.9900000e+00 0.0000000e+00 
6.7533333e+00 6.0100000e+00 0.0000000e+00 
6.7533333e+00 6.0300000e+00 0.0000000e+00 
6.7800000e+00 5.9700000e+00 0.0000000e+00 
6.7800000e+00 5.9900000e+00 0.0000000e+00 
6.7800000e+00 6.0100000e+00 0.0000000e+00 
6.7800000e+00 6.0300000e+00 0.0000000e+00 
6.8066667e+00 5.9700000e+00 0.0000000e+00 
6.8066667e+00 5.9900000e+00 0.0000000e+00 
6.8066667e+00 6.0100000e+00 0.0000000e+00 
6.8066667e+00 6.0300000e+00 0.0000000e+00 
6.8333333e+00 5.9700000e+00 0.0000000e+00 
6.8333333e+00 5.9900000e+00 0.0000000e+00 
6.8333333e+00 6.0100000e+00 0.0000000e+00 
6.8333333e+00 6.0300000e+00 0.0000000e+00 
6.8600000e+00 5.9700000e+00 0.0000000e+00 
6.8600000e+00 5.9900000e+00 0.0000000e+00 
6.8600000e+00 6.0100000e+00 0.0000000e+00 
6.8600000e+00 6.0300000e+00 0.0000000e+00 
6.8866667e+00 5.9700000e+00 0.0000000e+00 
6.8866667e+00 5.9900000e+00 0.0000000e+00 
6.8866667e+00 6.0100000e+00 0.0000000e+00 
6.8866667e+00 6.0300000e+00 0.0000000e+00 
6.9133333e+00 5.9700000e+00 0.0000000e+00 
6.9133333e+00 5.9900000e+00 0.0000000e+00 
6.9133333e+00 6.0100000e+00 0.0000000e+00 
6.9133333e+00 6.0300000e+00 0.0000000e+00 
6.9400000e+00 5.9700000e+00 0.0000000e+00 
6.9400000e+00 5.9900000e+00 0.0000000e+00 
6.9400000e+00 6.0100000e+00 0.0000000e+00 
6.9400000e+00 6.0300000e+00 0.0000000e+00 
6.9666667e+00 5.9700000e+00 0.0000000e+00 
6.9666667e+00 5.9900000e+00 0.0000000e+00 
6.9666667e+00 6.0100000e+00 0.0000000e+00 
6.9666667e+00 6.0300000e+00 0.0000000e+00 
6.9933333e+00 5.9700000e+00 0.0000000e+00 
6.9933333e+00 5.9900000e+00 0.0000000e+00 
6.9933333e+00 6.0100000e+00 0.0000000e+00 
6.9933333e+00 6.0300000e+00 0.0000000e+00 
7.0200000e+00 5.9700000e+00 0.0000000e+00 
7.0200000e+00 5.9900000e+00 0.0000000e+00 
[...]
POINT_DATA 604
FIELD FieldData 2
DISPLACEMENT 3 604  float
0.0000000e+00 0.0000000e+00 0.0000000e+00 
0.0000000e+00 0.0000000e+00 0.0000000e+00 
-1.2098911e-04 -7.0503554e-05 0.0000000e+00 
-3.8954563e-05 -4.5165430e-05 0.0000000e+00 
0.0000000e+00 0.0000000e+00 0.0000000e+00 
3.8217723e-05 -4.5372770e-05 0.0000000e+00 
-2.4637771e-04 -2.2962889e-04 0.0000000e+00 
-8.3088359e-05 -2.0897061e-04 0.0000000e+00 
0.0000000e+00 0.0000000e+00 0.0000000e+00 
1.2011893e-04 -7.1048879e-05 0.0000000e+00 
8.0738044e-05 -2.0972196e-04 0.0000000e+00 
-3.7273522e-04 -5.0205798e-04 0.0000000e+00 
2.4369301e-04 -2.3177302e-04 0.0000000e+00 
-1.2600839e-04 -4.8179081e-04 0.0000000e+00 
1.2025617e-04 -4.8338364e-04 0.0000000e+00 
3.6644177e-04 -5.0673255e-04 0.0000000e+00 
-5.0014613e-04 -8.8419892e-04 0.0000000e+00 
-1.7052909e-04 -8.6521513e-04 0.0000000e+00 
1.5863613e-04 -8.6799745e-04 0.0000000e+00 
4.8753536e-04 -8.9244900e-04 0.0000000e+00 
-6.2914498e-04 -1.3762255e-03 0.0000000e+00 
-2.1675105e-04 -1.3588127e-03 0.0000000e+00 
1.9508428e-04 -1.3631270e-03 0.0000000e+00 
6.0658343e-04 -1.3890712e-03 0.0000000e+00 
-7.6015263e-04 -1.9778844e-03 0.0000000e+00 
-2.6515907e-04 -1.9623889e-03 0.0000000e+00 
2.2918122e-04 -1.9685723e-03 0.0000000e+00 
7.2310313e-04 -1.9963396e-03 0.0000000e+00 
-8.9360089e-04 -2.6889447e-03 0.0000000e+00 
-3.1619222e-04 -2.6757045e-03 0.0000000e+00 
2.6046809e-04 -2.6840925e-03 0.0000000e+00 
8.3662947e-04 -2.7140152e-03 0.0000000e+00 
-1.0299172e-03 -3.5091563e-03 0.0000000e+00 
-3.7029042e-04 -3.4985075e-03 0.0000000e+00 
2.8849369e-04 -3.5094328e-03 0.0000000e+00 
9.4669899e-04 -3.5418407e-03 0.0000000e+00 
-1.1695256e-03 -4.4382536e-03 0.0000000e+00 
-4.2788961e-04 -4.4305295e-03 0.0000000e+00 
3.1280990e-04 -4.4443221e-03 0.0000000e+00 
1.0528518e-03 -4.4795420e-03 0.0000000e+00 
-1.3128457e-03 -5.4759554e-03 0.0000000e+00 
-4.8942201e-04 -5.4714864e-03 0.0000000e+00 
3.3297246e-04 -5.4884733e-03 0.0000000e+00 
1.1546310e-03 -5.5268293e-03 0.0000000e+00 
-1.4602938e-03 -6.6219641e-03 0.0000000e+00 
-5.5531564e-04 -6.6210775e-03 0.0000000e+00 
3.4854079e-04 -6.6415829e-03 0.0000000e+00 
1.2515847e-03 -6.6833956e-03 0.0000000e+00 
-1.6122804e-03 -7.8759663e-03 0.0000000e+00 
-6.2599437e-04 -7.8789861e-03 0.0000000e+00 
3.5907880e-04 -7.9033306e-03 0.0000000e+00 
1.3432630e-03 -7.9489176e-03 0.0000000e+00 
-1.7692129e-03 -9.2376317e-03 0.0000000e+00 
-7.0187738e-04 -9.2448786e-03 0.0000000e+00 
3.6415466e-04 -9.2733793e-03 0.0000000e+00 
1.4292226e-03 -9.3230546e-03 0.0000000e+00 
-1.9314928e-03 -1.0706614e-02 0.0000000e+00 
-7.8337924e-04 -1.0718405e-02 0.0000000e+00 
3.6334149e-04 -1.0751375e-02 0.0000000e+00 
1.5090237e-03 -1.0805450e-02 0.0000000e+00 
-2.0995175e-03 -1.2282551e-02 0.0000000e+00 
-8.7090941e-04 -1.2299198e-02 0.0000000e+00 
3.5621725e-04 -1.2336949e-02 0.0000000e+00 
1.5822324e-03 -1.2395728e-02 0.0000000e+00 
-2.2736783e-03 -1.3965062e-02 0.0000000e+00 
-9.6487210e-04 -1.3986876e-02 0.0000000e+00 
3.4236505e-04 -1.4029712e-02 0.0000000e+00 
1.6484190e-03 -1.4093498e-02 0.0000000e+00 
-2.4543610e-03 -1.5753753e-02 0.0000000e+00 
-1.0656660e-03 -1.5781038e-02 0.0000000e+00 
3.2137357e-04 -1.5829261e-02 0.0000000e+00 
1.7071590e-03 -1.5898353e-02 0.0000000e+00 
-2.6419458e-03 -1.7648211e-02 0.0000000e+00 
-1.1736839e-03 -1.7681268e-02 0.0000000e+00 
2.9283704e-04 -1.7735174e-02 0.0000000e+00 
1.7580345e-03 -1.7809866e-02 0.0000000e+00 
-2.8368065e-03 -1.9648006e-02 0.0000000e+00 
-1.2893128e-03 -1.9687131e-02 0.0000000e+00 
2.5635582e-04 -1.9747014e-02 0.0000000e+00 
1.8006326e-03 -1.9827595e-02 0.0000000e+00 
-3.0393109e-03 -2.1752693e-02 0.0000000e+00 
-1.4129333e-03 -2.1798176e-02 0.0000000e+00 
2.1153661e-04 -2.1864323e-02 0.0000000e+00 
1.8345470e-03 -2.1951078e-02 0.0000000e+00 
-3.2498213e-03 -2.3961808e-02 0.0000000e+00 
-1.5449197e-03 -2.4013936e-02 0.0000000e+00 
1.5799246e-04 -2.4086630e-02 0.0000000e+00 
1.8593794e-03 -2.4179838e-02 0.0000000e+00 
-3.4686922e-03 -2.6274872e-02 0.0000000e+00 
-1.6856396e-03 -2.6333926e-02 0.0000000e+00 
9.5343075e-05 -2.6413446e-02 0.0000000e+00 
1.8747365e-03 -2.6513381e-02 0.0000000e+00 
-3.6962708e-03 -2.8691389e-02 0.0000000e+00 
-1.8354534e-03 -2.8757646e-02 0.0000000e+00 
2.3214925e-05 -2.8844263e-02 0.0000000e+00 
1.8802313e-03 -2.8951195e-02 0.0000000e+00 
-3.9328972e-03 -3.1210847e-02 0.0000000e+00 
-1.9947144e-03 -3.1284577e-02 0.0000000e+00 
-5.8758806e-05 -3.1378557e-02 0.0000000e+00 
1.8754849e-03 -3.1492750e-02 0.0000000e+00 
-4.1789022e-03 -3.3832713e-02 0.0000000e+00 
-2.1637680e-03 -3.3914180e-02 0.0000000e+00 
-1.5093716e-04 -3.4015787e-02 0.0000000e+00 
1.8601222e-03 -3.4137497e-02 0.0000000e+00 
-4.4346103e-03 -3.6556438e-02 0.0000000e+00 
-2.3429518e-03 -3.6645902e-02 0.0000000e+00 
-2.5367172e-04 -3.6755389e-02 0.0000000e+00 
1.8337794e-03 -3.6884869e-02 0.0000000e+00 
-4.7003373e-03 -3.9381454e-02 0.0000000e+00 
-2.5325957e-03 -3.9479168e-02 0.0000000e+00 
-3.6730578e-04 -3.9596786e-02 0.0000000e+00 
1.7960991e-03 -3.9734281e-02 0.0000000e+00 
-4.9763911e-03 -4.2307177e-02 0.0000000e+00 
-2.7330211e-03 -4.2413387e-02 0.0000000e+00 
-4.9217452e-04 -4.2539377e-02 0.0000000e+00 
1.7467329e-03 -4.2685127e-02 0.0000000e+00 
-5.2630706e-03 -4.5333002e-02 0.0000000e+00 
-2.9445409e-03 -4.5447949e-02 0.0000000e+00 
-6.2860456e-04 -4.5582548e-02 0.0000000e+00 
1.6853400e-03 -4.5736786e-02 0.0000000e+00 
-5.5606661e-03 -4.8458309e-02 0.0000000e+00 
-3.1674591e-03 -4.8582225e-02 0.0000000e+00 
-7.7691392e-04 -4.8725664e-02 0.0000000e+00 
1.6115891e-03 -4.8888615e-02 0.0000000e+00 
-5.8694585e-03 -5.1682456e-02 0.0000000e+00 
-3.4020708e-03 -5.1815570e-02 0.0000000e+00 
-9.3741179e-04 -5.1968070e-02 0.0000000e+00 
1.5251567e-03 -5.2139954e-02 0.0000000e+00 
-6.1897189e-03 -5.5004788e-02 0.0000000e+00 
-3.6486617e-03 -5.5147317e-02 0.0000000e+00 
-1.1103979e-03 -5.5309096e-02 0.0000000e+00 
1.4257286e-03 -5.5490124e-02 0.0000000e+00 
-6.5217091e-03 -5.8424624e-02 0.0000000e+00 
-3.9075077e-03 -5.8576783e-02 0.0000000e+00 
-1.2961628e-03 -5.8748047e-02 0.0000000e+00 
1.3130004e-03 -5.8938426e-02 0.0000000e+00 
-6.8656807e-03 -6.1941271e-02 0.0000000e+00 
-4.1788749e-03 -6.2103263e-02 0.0000000e+00 
-1.4949870e-03 -6.2284215e-02 0.0000000e+00 
1.1866768e-03 -6.2484141e-02 0.0000000e+00 
-7.2218752e-03 -6.5554011e-02 0.0000000e+00 
-4.4630196e-03 -6.5726034e-02 0.0000000e+00 
-1.7071405e-03 -6.5916868e-02 0.0000000e+00 
1.0464726e-03 -6.6126531e-02 0.0000000e+00 
-7.5905258e-03 -6.9262112e-02 0.0000000e+00 
-4.7601878e-03 -6.9444356e-02 0.0000000e+00 
-1.9328836e-03 -6.9645257e-02 0.0000000e+00 
8.9211606e-04 -6.9864840e-02 0.0000000e+00 
-7.9718534e-03 -7.3064822e-02 0.0000000e+00 
-5.0706151e-03 -7.3257469e-02 0.0000000e+00 
-2.1724659e-03 -7.3468614e-02 0.0000000e+00 
7.2334245e-04 -7.3698292e-02 0.0000000e+00 
-8.3660678e-03 -7.6961371e-02 0.0000000e+00 
-5.3945261e-03 -7.7164594e-02 0.0000000e+00 
-2.4261267e-03 -7.7386154e-02 0.0000000e+00 
5.3989781e-04 -7.7626091e-02 0.0000000e+00 
-8.7733677e-03 -8.0950967e-02 0.0000000e+00 
-5.7321345e-03 -8.1164932e-02 0.0000000e+00 
-2.6940950e-03 -8.1397068e-02 0.0000000e+00 
3.4153973e-04 -8.1647423e-02 0.0000000e+00 
-9.1939387e-03 -8.5032802e-02 0.0000000e+00 
-6.0836421e-03 -8.5257665e-02 0.0000000e+00 
-2.9765881e-03 -8.5500530e-02 0.0000000e+00 
1.2803210e-04 -8.5761451e-02 0.0000000e+00 
-9.6279561e-03 -8.9206043e-02 0.0000000e+00 
-6.4492394e-03 -8.9441953e-02 0.0000000e+00 
-3.2738117e-03 -8.9695691e-02 0.0000000e+00 
-1.0084464e-04 -8.9967318e-02 0.0000000e+00 
-1.0075584e-02 -9.3469840e-02 0.0000000e+00 
-6.8291049e-03 -9.3716936e-02 0.0000000e+00 
-3.5859595e-03 -9.3981681e-02 0.0000000e+00 
-3.4529933e-04 -9.4264146e-02 0.0000000e+00 
-1.0536973e-02 -9.7823322e-02 0.0000000e+00 
-7.2234055e-03 -9.8081733e-02 0.0000000e+00 
-3.9132134e-03 -9.8357612e-02 0.0000000e+00 
-6.0552840e-04 -9.8651036e-02 0.0000000e+00 
-1.1012263e-02 -1.0226560e-01 0.0000000e+00 
-7.6322957e-03 -1.0253545e-01 0.0000000e+00 
-4.2557427e-03 -1.0282258e-01 0.0000000e+00 
-8.8171659e-04 -1.0312707e-01 0.0000000e+00 
-1.1501582e-02 -1.0679576e-01 0.0000000e+00 
-8.0559176e-03 -1.0707715e-01 0.0000000e+00 
-4.6137047e-03 -1.0737564e-01 0.0000000e+00 
-1.1740358e-03 -1.0769131e-01 0.0000000e+00 
-1.2005044e-02 -1.1141287e-01 0.0000000e+00 
-8.4944011e-03 -1.1170591e-01 0.0000000e+00 
-4.9872440e-03 -1.1201586e-01 0.0000000e+00 
-1.4826454e-03 -1.1234280e-01 0.0000000e+00 
-1.2522751e-02 -1.1611598e-01 0.0000000e+00 
-8.9478630e-03 -1.1642077e-01 0.0000000e+00 
-5.3764922e-03 -1.1674226e-01 0.0000000e+00 
-1.8076923e-03 -1.1708056e-01 0.0000000e+00 
-1.3054793e-02 -1.2090413e-01 0.0000000e+00 
-9.4164075e-03 -1.2122075e-01 0.0000000e+00 
-5.7815683e-03 -1.2155386e-01 0.0000000e+00 
-2.1493095e-03 -1.2190358e-01 0.0000000e+00 
-1.3601247e-02 -1.2577633e-01 0.0000000e+00 
-9.9001258e-03 -1.2610484e-01 0.0000000e+00 
-6.2025779e-03 -1.2644964e-01 0.0000000e+00 
-2.5076177e-03 -1.2681086e-01 0.0000000e+00 
-1.4162175e-02 -1.3073156e-01 0.0000000e+00 
-1.0399096e-02 -1.3107203e-01 0.0000000e+00 
-6.6396137e-03 -1.3142859e-01 0.0000000e+00 
-2.8827235e-03 -1.3180136e-01 0.0000000e+00 
-1.4737630e-02 -1.3576880e-01 0.0000000e+00 
-1.0913383e-02 -1.3612129e-01 0.0000000e+00 
-7.0927546e-03 -1.3648964e-01 0.0000000e+00 
-3.2747203e-03 -1.3687401e-01 0.0000000e+00 
-1.5327648e-02 -1.4088701e-01 0.0000000e+00 
-1.1443039e-02 -1.4125155e-01 0.0000000e+00 
-7.5620657e-03 -1.4163174e-01 0.0000000e+00 
-3.6836881e-03 -1.4202774e-01 0.0000000e+00 
-1.5932257e-02 -1.4608512e-01 0.0000000e+00 
-1.1988103e-02 -1.4646174e-01 0.0000000e+00 
-8.0475991e-03 -1.4685381e-01 0.0000000e+00 
-4.1096887e-03 -1.4726146e-01 0.0000000e+00 
-1.6551470e-02 -1.5136205e-01 0.0000000e+00 
-1.2548600e-02 -1.5175079e-01 0.0000000e+00 
-8.5493931e-03 -1.5215474e-01 0.0000000e+00 
-4.5527754e-03 -1.5257406e-01 0.0000000e+00 
-1.7185285e-02 -1.5671670e-01 0.0000000e+00 
-1.3124542e-02 -1.5711756e-01 0.0000000e+00 
-9.0674731e-03 -1.5753341e-01 0.0000000e+00 
-5.0129852e-03 -1.5796442e-01 0.0000000e+00 
-1.7833687e-02 -1.6214797e-01 0.0000000e+00 
-1.3715929e-02 -1.6256096e-01 0.0000000e+00 
-9.6018514e-03 -1.6298870e-01 0.0000000e+00 
-5.4903427e-03 -1.6343138e-01 0.0000000e+00 
-1.8496648e-02 -1.6765472e-01 0.0000000e+00 
-1.4322744e-02 -1.6807982e-01 0.0000000e+00 
-1.0152526e-02 -1.6851944e-01 0.0000000e+00 
-5.9848631e-03 -1.6897378e-01 0.0000000e+00 
-1.9174126e-02 -1.7323579e-01 0.0000000e+00 
-1.4944960e-02 -1.7367299e-01 0.0000000e+00 
-1.0719481e-02 -1.7412448e-01 0.0000000e+00 
-6.4965422e-03 -1.7459045e-01 0.0000000e+00 
-1.9866067e-02 -1.7889002e-01 0.0000000e+00 
-1.5582535e-02 -1.7933929e-01 0.0000000e+00 
-1.1302687e-02 -1.7980261e-01 0.0000000e+00 
-7.0253613e-03 -1.8028018e-01 0.0000000e+00 
-2.0572406e-02 -1.8461623e-01 0.0000000e+00 
-1.6235413e-02 -1.8507753e-01 0.0000000e+00 
-1.1902099e-02 -1.8555264e-01 0.0000000e+00 
-7.5712884e-03 -1.8604176e-01 0.0000000e+00 
-2.1293062e-02 -1.9041322e-01 0.0000000e+00 
-1.6903525e-02 -1.9088650e-01 0.0000000e+00 
-1.2517660e-02 -1.9137335e-01 0.0000000e+00 
-8.1342769e-03 -1.9187397e-01 0.0000000e+00 
-2.2027945e-02 -1.9627977e-01 0.0000000e+00 
-1.7586792e-02 -1.9676498e-01 0.0000000e+00 
-1.3149300e-02 -1.9726350e-01 0.0000000e+00 
-8.7142650e-03 -1.9777556e-01 0.0000000e+00 
-2.2776953e-02 -2.0221467e-01 0.0000000e+00 
-1.8285120e-02 -2.0271173e-01 0.0000000e+00 
-1.3796933e-02 -2.0322185e-01 0.0000000e+00 
-9.3111782e-03 -2.0374527e-01 0.0000000e+00 
-2.3539972e-02 -2.0821667e-01 0.0000000e+00 
-1.8998403e-02 -2.0872551e-01 0.0000000e+00 
-1.4460464e-02 -2.0924715e-01 0.0000000e+00 
-9.9249279e-03 -2.0978185e-01 0.0000000e+00 
-2.4316875e-02 -2.1428453e-01 0.0000000e+00 
-1.9726523e-02 -2.1480505e-01 0.0000000e+00 
-1.5139781e-02 -2.1533813e-01 0.0000000e+00 
-1.0555413e-02 -2.1588402e-01 0.0000000e+00 
-2.5107529e-02 -2.2041699e-01 0.0000000e+00 
-2.0469352e-02 -2.2094910e-01 0.0000000e+00 
-1.5834762e-02 -2.2149351e-01 0.0000000e+00 
-1.1202515e-02 -2.2205049e-01 0.0000000e+00 
-2.5911787e-02 -2.2661278e-01 0.0000000e+00 
-2.1226748e-02 -2.2715637e-01 0.0000000e+00 
-1.6545272e-02 -2.2771201e-01 0.0000000e+00 
-1.1866107e-02 -2.2827996e-01 0.0000000e+00 
-2.6729488e-02 -2.3287062e-01 0.0000000e+00 
-2.1998559e-02 -2.3342559e-01 0.0000000e+00 
-1.7271166e-02 -2.3399234e-01 0.0000000e+00 
-1.2546047e-02 -2.3457115e-01 0.0000000e+00 
-2.7560465e-02 -2.3918925e-01 0.0000000e+00 
-2.2784623e-02 -2.3975546e-01 0.0000000e+00 
-1.8012286e-02 -2.4033320e-01 0.0000000e+00 
-1.3242185e-02 -2.4092274e-01 0.0000000e+00 
-2.8404536e-02 -2.4556735e-01 0.0000000e+00 
-2.3584763e-02 -2.4614468e-01 0.0000000e+00 
-1.8768463e-02 -2.4673327e-01 0.0000000e+00 
-1.3954359e-02 -2.4733341e-01 0.0000000e+00 
-2.9261511e-02 -2.5200364e-01 0.0000000e+00 
-2.4398795e-02 -2.5259194e-01 0.0000000e+00 
-1.9539517e-02 -2.5319125e-01 0.0000000e+00 
-1.4682394e-02 -2.5380185e-01 0.0000000e+00 
-3.0131191e-02 -2.5849680e-01 0.0000000e+00 
-2.5226523e-02 -2.5909593e-01 0.0000000e+00 
-2.0325254e-02 -2.5970580e-01 0.0000000e+00 
-1.5426099e-02 -2.6032671e-01 0.0000000e+00 
-3.1013370e-02 -2.6504554e-01 0.0000000e+00 
-2.6067742e-02 -2.6565534e-01 0.0000000e+00 
-2.1125475e-02 -2.6627562e-01 0.0000000e+00 
-1.6185277e-02 -2.6690668e-01 0.0000000e+00 
-3.1907830e-02 -2.7164852e-01 0.0000000e+00 
-2.6922239e-02 -2.7226883e-01 0.0000000e+00 
-2.1939965e-02 -2.7289936e-01 0.0000000e+00 
-1.6959716e-02 -2.7354041e-01 0.0000000e+00 
-3.2814349e-02 -2.7830445e-01 0.0000000e+00 
-2.7789790e-02 -2.7893510e-01 0.0000000e+00 
-2.2768504e-02 -2.7957570e-01 0.0000000e+00 
-1.7749196e-02 -2.8022656e-01 0.0000000e+00 
-3.3732694e-02 -2.8501199e-01 0.0000000e+00 
-2.8670164e-02 -2.8565280e-01 0.0000000e+00 
-2.3610860e-02 -2.8630330e-01 0.0000000e+00 
-1.8553487e-02 -2.8696381e-01 0.0000000e+00 
-3.4662628e-02 -2.9176984e-01 0.0000000e+00 
-2.9563122e-02 -2.9242063e-01 0.0000000e+00 
-2.4466793e-02 -2.9308085e-01 0.0000000e+00 
-1.9372347e-02 -2.9375081e-01 0.0000000e+00 
-3.5603908e-02 -2.9857667e-01 0.0000000e+00 
-3.0468419e-02 -2.9923725e-01 0.0000000e+00 
-2.5336055e-02 -2.9990700e-01 0.0000000e+00 
-2.0205527e-02 -3.0058624e-01 0.0000000e+00 
-3.6556283e-02 -3.0543117e-01 0.0000000e+00 
-3.1385802e-02 -3.0610135e-01 0.0000000e+00 
-2.6218392e-02 -3.0678044e-01 0.0000000e+00 
-2.1052768e-02 -3.0746876e-01 0.0000000e+00 
-3.7519501e-02 -3.1233203e-01 0.0000000e+00 
-3.2315013e-02 -3.1301161e-01 0.0000000e+00 
-2.7113541e-02 -3.1369984e-01 0.0000000e+00 
-2.1913806e-02 -3.1439705e-01 0.0000000e+00 
-3.8493300e-02 -3.1927795e-01 0.0000000e+00 
-3.3255787e-02 -3.1996673e-01 0.0000000e+00 
-2.8021235e-02 -3.2066390e-01 0.0000000e+00 
-2.2788368e-02 -3.2136979e-01 0.0000000e+00 
-3.9477417e-02 -3.2626763e-01 0.0000000e+00 
-3.4207857e-02 -3.2696540e-01 0.0000000e+00 
-2.8941198e-02 -3.2767130e-01 0.0000000e+00 
-2.3676174e-02 -3.2838567e-01 0.0000000e+00 
-4.0471588e-02 -3.3329977e-01 0.0000000e+00 
-3.5170948e-02 -3.3400632e-01 0.0000000e+00 
-2.9873151e-02 -3.3472075e-01 0.0000000e+00 
-2.4576937e-02 -3.3544339e-01 0.0000000e+00 
-4.1475541e-02 -3.4037310e-01 0.0000000e+00 
-3.6144785e-02 -3.4108821e-01 0.0000000e+00 
-3.0816810e-02 -3.4181096e-01 0.0000000e+00 
-2.5490369e-02 -3.4254166e-01 0.0000000e+00 
-4.2489002e-02 -3.4748633e-01 0.0000000e+00 
-3.7129084e-02 -3.4820980e-01 0.0000000e+00 
-3.1771887e-02 -3.4894064e-01 0.0000000e+00 
-2.6416171e-02 -3.4967920e-01 0.0000000e+00 
-4.3511695e-02 -3.5463821e-01 0.0000000e+00 
-3.8123563e-02 -3.5536980e-01 0.0000000e+00 
-3.2738091e-02 -3.5610853e-01 0.0000000e+00 
-2.7354047e-02 -3.5685472e-01 0.0000000e+00 
-4.4543336e-02 -3.6182747e-01 0.0000000e+00 
-3.9127933e-02 -3.6256698e-01 0.0000000e+00 
-3.3715125e-02 -3.6331337e-01 0.0000000e+00 
-2.8303693e-02 -3.6406698e-01 0.0000000e+00 
-4.5583647e-02 -3.6905288e-01 0.0000000e+00 
-4.0141904e-02 -3.6980007e-01 0.0000000e+00 
-3.4702692e-02 -3.7055390e-01 0.0000000e+00 
-2.9264803e-02 -3.7131471e-01 0.0000000e+00 
-4.6632344e-02 -3.7631319e-01 0.0000000e+00 
-4.1165183e-02 -3.7706784e-01 0.0000000e+00 
-3.5700489e-02 -3.7782889e-01 0.0000000e+00 
-3.0237065e-02 -3.7859668e-01 0.0000000e+00 
-4.7689145e-02 -3.8360719e-01 0.0000000e+00 
-4.2197479e-02 -3.8436907e-01 0.0000000e+00 
-3.6708214e-02 -3.8513712e-01 0.0000000e+00 
-3.1220167e-02 -3.8591166e-01 0.0000000e+00 
-4.8753768e-02 -3.9093366e-01 0.0000000e+00 
-4.3238497e-02 -3.9170255e-01 0.0000000e+00 
-3.7725561e-02 -3.9247737e-01 0.0000000e+00 
-3.2213792e-02 -3.9325845e-01 0.0000000e+00 
-4.9825929e-02 -3.9829142e-01 0.0000000e+00 
-4.4287943e-02 -3.9906708e-01 0.0000000e+00 
-3.8752225e-02 -3.9984845e-01 0.0000000e+00 
-3.3217623e-02 -4.0063584e-01 0.0000000e+00 
-5.0905350e-02 -4.0567928e-01 0.0000000e+00 
-4.5345525e-02 -4.0646149e-01 0.0000000e+00 
-3.9787900e-02 -4.0724918e-01 0.0000000e+00 
-3.4231341e-02 -4.0804267e-01 0.0000000e+00 
-5.1991751e-02 -4.1309608e-01 0.0000000e+00 
-4.6410950e-02 -4.1388461e-01 0.0000000e+00 
-4.0832281e-02 -4.1467840e-01 0.0000000e+00 
-3.5254628e-02 -4.1547776e-01 0.0000000e+00 
-5.3084855e-02 -4.2054068e-01 0.0000000e+00 
-4.7483927e-02 -4.2133531e-01 0.0000000e+00 
-4.1885063e-02 -4.2213497e-01 0.0000000e+00 
-3.6287166e-02 -4.2293999e-01 0.0000000e+00 
-5.4184391e-02 -4.2801195e-01 0.0000000e+00 
-4.8564169e-02 -4.2881245e-01 0.0000000e+00 
-4.2945942e-02 -4.2961777e-01 0.0000000e+00 
-3.7328635e-02 -4.3042823e-01 0.0000000e+00 
-5.5290088e-02 -4.3550879e-01 0.0000000e+00 
-4.9651388e-02 -4.3631494e-01 0.0000000e+00 
-4.4014618e-02 -4.3712570e-01 0.0000000e+00 
-3.8378719e-02 -4.3794138e-01 0.0000000e+00 
-5.6401675e-02 -4.4303012e-01 0.0000000e+00 
-5.0745302e-02 -4.4384170e-01 0.0000000e+00 
-4.5090791e-02 -4.4465767e-01 0.0000000e+00 
-3.9437106e-02 -4.4547836e-01 0.0000000e+00 
-5.7518890e-02 -4.5057487e-01 0.0000000e+00 
-5.1845629e-02 -4.5139165e-01 0.0000000e+00 
-4.6174166e-02 -4.5221263e-01 0.0000000e+00 
-4.0503482e-02 -4.5303812e-01 0.0000000e+00 
-5.8641465e-02 -4.5814199e-01 0.0000000e+00 
-5.2952091e-02 -4.5896376e-01 0.0000000e+00 
-4.7264449e-02 -4.5978954e-01 0.0000000e+00 
-4.1577540e-02 -4.6061961e-01 0.0000000e+00 
-5.9769143e-02 -4.6573047e-01 0.0000000e+00 
-5.4064413e-02 -4.6655701e-01 0.0000000e+00 
-4.8361348e-02 -4.6738737e-01 0.0000000e+00 
-4.2658973e-02 -4.6822182e-01 0.0000000e+00 
-6.0901671e-02 -4.7333929e-01 0.0000000e+00 
-5.5182324e-02 -4.7417039e-01 0.0000000e+00 
-4.9464576e-02 -4.7500512e-01 0.0000000e+00 
-4.3747476e-02 -4.7584376e-01 0.0000000e+00 
-6.2038801e-02 -4.8096747e-01 0.0000000e+00 
-5.6305558e-02 -4.8180293e-01 0.0000000e+00 
-5.0573850e-02 -4.8264183e-01 0.0000000e+00 
-4.4842748e-02 -4.8348445e-01 0.0000000e+00 
-6.3180289e-02 -4.8861406e-01 0.0000000e+00 
-5.7433855e-02 -4.8945368e-01 0.0000000e+00 
-5.1688892e-02 -4.9029654e-01 0.0000000e+00 
-4.5944495e-02 -4.9114294e-01 0.0000000e+00 
-6.4325898e-02 -4.9627813e-01 0.0000000e+00 
-5.8566959e-02 -4.9712169e-01 0.0000000e+00 
-5.2809427e-02 -4.9796833e-01 0.0000000e+00 
-4.7052423e-02 -4.9881832e-01 0.0000000e+00 
-6.5475396e-02 -5.0395876e-01 0.0000000e+00 
-5.9704619e-02 -5.0480607e-01 0.0000000e+00 
-5.3935187e-02 -5.0565629e-01 0.0000000e+00 
-4.8166245e-02 -5.0650969e-01 0.0000000e+00 
-6.6628557e-02 -5.1165506e-01 0.0000000e+00 
-6.0846590e-02 -5.1250593e-01 0.0000000e+00 
-5.5065908e-02 -5.1335955e-01 0.0000000e+00 
-4.9285680e-02 -5.1421616e-01 0.0000000e+00 
-6.7785162e-02 -5.1936619e-01 0.0000000e+00 
-6.1992635e-02 -5.2022042e-01 0.0000000e+00 
-5.6201333e-02 -5.2107725e-01 0.0000000e+00 
-5.0410449e-02 -5.2193691e-01 0.0000000e+00 
-6.8944999e-02 -5.2709129e-01 0.0000000e+00 
-6.3142522e-02 -5.2794871e-01 0.0000000e+00 
-5.7341210e-02 -5.2880857e-01 0.0000000e+00 
-5.1540284e-02 -5.2967109e-01 0.0000000e+00 
-7.0107861e-02 -5.3482956e-01 0.0000000e+00 
-6.4296025e-02 -5.3568999e-01 0.0000000e+00 
-5.8485294e-02 -5.3655270e-01 0.0000000e+00 
-5.2674917e-02 -5.3741793e-01 0.0000000e+00 