# vtk DataFile Version 4.0
vtk output
ASCII
DATASET UNSTRUCTURED_GRID
POINTS 604 float
5.5000000e+00 5.9700000e+00 0.0000000e+00 
5.5000000e+00 5.9900000e+00 0.0000000e+00 
5.5266667e+00 5.9700000e+00 0.0000000e+00 
5.5266667e+00 5.9900000e+00 0.0000000e+00 
5.5000000e+00 6.0100000e+00 0.0000000e+00 
5.5266667e+00 6.0100000e+00 0.0000000e+00 
5.5533333e+00 5.9700000e+00 0.0000000e+00 
5.5533333e+00 5.9900000e+00 0.0000000e+00 
5.5000000e+00 6.0300000e+00 0.0000000e+00 
5.5266667e+00 6.0300000e+00 0.0000000e+00 
5.5533333e+00 6.0100000e+00 0.0000000e+00 
5.5800000e+00 5.9700000e+00 0.0000000e+00 
5.5533333e+00 6.0300000e+00 0.0000000e+00 
5.5800000e+00 5.9900000e+00 0.0000000e+00 
5.5800000e+00 6.0100000e+00 0.0000000e+00 
5.5800000e+00 6.0300000e+00 0.0000000e+00 
5.6066667e+00 5.9700000e+00 0.0000000e+00 
5.6066667e+00 5.9900000e+00 0.0000000e+00 
5.6066667e+00 6.0100000e+00 0.0000000e+00 
5.6066667e+00 6.0300000e+00 0.0000000e+00 
5.6333333e+00 5.9700000e+00 0.0000000e+00 
5.6333333e+00 5.9900000e+00 0.0000000e+00 
5.6333333e+00 6.0100000e+00 0.0000000e+00 
5.6333333e+00 6.0300000e+00 0.0000000e+00 
5.6600000e+00 5.9700000e+00 0.0000000e+00 
5.6600000e+00 5.9900000e+00 0.0000000e+00 
5.6600000e+00 6.0100000e+00 0.0000000e+00 
5.6600000e+00 6.0300000e+00 0.0000000e+00 
5.6866667e+00 5.9700000e+00 0.0000000e+00 
5.6866667e+00 5.9900000e+00 0.0000000e+00 
5.6866667e+00 6.0100000e+00 0.0000000e+00 
5.6866667e+00 6.0300000e+00 0.0000000e+00 
5.7133333e+00 5.9700000e+00 0.0000000e+00 
5.7133333e+00 5.9900000e+00 0.0000000e+00 
5.7133333e+00 6.0100000e+00 0.0000000e+00 
5.7133333e+00 6.0300000e+00 0.0000000e+00 
5.7400000e+00 5.9700000e+00 0.0000000e+00 
5.7400000e+00 5.9900000e+00 0.0000000e+00 
5.7400000e+00 6.0100000e+00 0.0000000e+00 
5.7400000e+00 6.0300000e+00 0.0000000e+00 
5.7666667e+00 5.9700000e+00 0.0000000e+00 
5.7666667e+00 5.9900000e+00 0.0000000e+00 
5.7666667e+00 6.0100000e+00 0.0000000e+00 
5.7666667e+00 6.0300000e+00 0.0000000e+00 
5.7933333e+00 5.9700000e+00 0.0000000e+00 
5.7933333e+00 5.9900000e+00 0.0000000e+00 
5.7933333e+00 6.0100000e+00 0.0000000e+00 
5.7933333e+00 6.0300000e+00 0.0000000e+00 
5.8200000e+00 5.9700000e+00 0.0000000e+00 
5.8200000e+00 5.9900000e+00 0.0000000e+00 
5.8200000e+00 6.0100000e+00 0.0000000e+00 
5.8200000e+00 6.0300000e+00 0.0000000e+00 
5.8466667e+00 5.9700000e+00 0.0000000e+00 
5.8466667e+00 5.9900000e+00 0.0000000e+00 
5.8466667e+00 6.0100000e+00 0.0000000e+00 
5.8466667e+00 6.0300000e+00 0.0000000e+00 
5.8733333e+00 5.9700000e+00 0.0000000e+00 
5.8733333e+00 5.9900000e+00 0.0000000e+00 
5.8733333e+00 6.0100000e+00 0.0000000e+00 
5.8733333e+00 6.0300000e+00 0.0000000e+00 
5.9000000e+00 5.9700000e+00 0.0000000e+00 
5.9000000e+00 5.9900000e+00 0.0000000e+00 
5.9000000e+00 6.0100000e+00 0.0000000e+00 
5.9000000e+00 6.0300000e+00 0.0000000e+00 
5.9266667e+00 5.9700000e+00 0.0000000e+00 
5.9266667e+00 5.9900000e+00 0.0000000e+00 
5.9266667e+00 6.0100000e+00 0.0000000e+00 
5.9266667e+00 6.0300000e+00 0.0000000e+00 
5.9533333e+00 5.9700000e+00 0.0000000e+00 
5.9533333e+00 5.9900000e+00 0.0000000e+00 
5.9533333e+00 6.0100000e+00 0.0000000e+00 
5.9533333e+00 6.0300000e+00 0.0000000e+00 
5.9800000e+00 5.9700000e+00 0.0000000e+00 
5.9800000e+00 5.9900000e+00 0.0000000e+00 
5.9800000e+00 6.0100000e+00 0.0000000e+00 
5.9800000e+00 6.0300000e+00 0.0000000e+00 
6.0066667e+00 5.9700000e+00 0.0000000e+00 
6.0066667e+00 5.9900000e+00 0.0000000e+00 
6.0066667e+00 6.0100000e+00 0.0000000e+00 
6.0066667e+00 6.0300000e+00 0.0000000e+00 
6.0333333e+00 5.9700000e+00 0.0000000e+00 
6.0333333e+00 5.9900000e+00 0.0000000e+00 
6.0333333e+00 6.0100000e+00 0.0000000e+00 
6.0333333e+00 6.0300000e+00 0.0000000e+00 
6.0600000e+00 5.9700000e+00 0.0000000e+00 
6.0600000e+00 5.9900000e+00 0.0000000e+00 
6.0600000e+00 6.0100000e+00 0.0000000e+00 
6.0600000e+00 6.0300000e+00 0.0000000e+00 
6.0866667e+00 5.9700000e+00 0.0000000e+00 
6.0866667e+00 5.9900000e+00 0.0000000e+00 
6.0866667e+00 6.0100000e+00 0.0000000e+00 
6.0866667e+00 6.0300000e+00 0.0000000e+00 
6.1133333e+00 5.9700000e+00 0.0000000e+00 
6.1133333e+00 5.9900000e+00 0.0000000e+00 
6.1133333e+00 6.0100000e+00 0.0000000e+00 
6.1133333e+00 6.0300000e+00 0.0000000e+00 
6.1400000e+00 5.9700000e+00 0.0000000e+00 
6.1400000e+00 5.9900000e+00 0.0000000e+00 
6.1400000e+00 6.0100000e+00 0.0000000e+00 
6.1400000e+00 6.0300000e+00 0.0000000e+00 
6.1666667e+00 5.9700000e+00 0.0000000e+00 
6.1666667e+00 5.9900000e+00 0.0000000e+00 
6.1666667e+00 6.0100000e+00 0.0000000e+00 
6.1666667e+00 6.0300000e+00 0.0000000e+00 
6.1933333e+00 5.9700000e+00 0.0000000e+00 
6.1933333e+00 5.9900000e+00 0.0000000e+00 
6.1933333e+00 6.0100000e+00 0.0000000e+00 
6.1933333e+00 6.0300000e+00 0.0000000e+00 
6.2200000e+00 5.9700000e+00 0.0000000e+00 
6.2200000e+00 5.9900000e+00 0.0000000e+00 
6.2200000e+00 6.0100000e+00 0.0000000e+00 
6.2200000e+00 6.0300000e+00 0.0000000e+00 
6.2466667e+00 5.9700000e+00 0.0000000e+00 
6.2466667e+00 5.9900000e+00 0.0000000e+00 
6.2466667e+00 6.0100000e+00 0.0000000e+00 
6.2466667e+00 6.0300000e+00 0.0000000e+00 
6.2733333e+00 5.9700000e+00 0.0000000e+00 
6.2733333e+00 5.9900000e+00 0.0000000e+00 
6.2733333e+00 6.0100000e+00 0.0000000e+00 
6.2733333e+00 6.0300000e+00 0.0000000e+00 
6.3000000e+00 5.9700000e+00 0.0000000e+00 
6.3000000e+00 5.9900000e+00 0.0000000e+00 
6.3000000e+00 6.0100000e+00 0.0000000e+00 
6.3000000e+00 6.0300000e+00 0.0000000e+00 
6.3266667e+00 5.9700000e+00 0.0000000e+00 
6.3266667e+00 5.9900000e+00 0.0000000e+00 
6.3266667e+00 6.0100000e+00 0.0000000e+00 
6.3266667e+00 6.0300000e+00 0.0000000e+00 
6.3533333e+00 5.9700000e+00 0.0000000e+00 
6.3533333e+00 5.9900000e+00 0.0000000e+00 
6.3533333e+00 6.0100000e+00 0.0000000e+00 
6.3533333e+00 6.0300000e+00 0.0000000e+00 
6.3800000e+00 5.9700000e+00 0.0000000e+00 
6.3800000e+00 5.9900000e+00 0.0000000e+00 
6.3800000e+00 6.0100000e+00 0.0000000e+00 
6.3800000e+00 6.0300000e+00 0.0000000e+00 
6.4066667e+00 5.9700000e+00 0.0000000e+00 
6.4066667e+00 5.9900000e+00 0.0000000e+00 
6.4066667e+00 6.0100000e+00 0.0000000e+00 
6.4066667e+00 6.0300000e+00 0.0000000e+00 
6.4333333e+00 5.9700000e+00 0.0000000e+00 
6.4333333e+00 5.9900000e+00 0.0000000e+00 
6.4333333e+00 6.0100000e+00 0.0000000e+00 
6.4333333e+00 6.0300000e+00 0.0000000e+00 
6.4600000e+00 5.9700000e+00 0.0000000e+00 
6.4600000e+00 5.9900000e+00 0.0000000e+00 
6.4600000e+00 6.0100000e+00 0.0000000e+00 
6.4600000e+00 6.0300000e+00 0.0000000e+00 
6.4866667e+00 5.9700000e+00 0.0000000e+00 
6.4866667e+00 5.9900000e+00 0.0000000e+00 
6.4866667e+00 6.0100000e+00 0.0000000e+00 
6.4866667e+00 6.0300000e+00 0.0000000e+00 
6.5133333e+00 5.9700000e+00 0.0000000e+00 
6.5133333e+00 5.9900000e+00 0.0000000e+00 
6.5133333e+00 6.0100000e+00 0.0000000e+00 
6.5133333e+00 6.0300000e+00 0.0000000e+00 
6.5400000e+00 5.9700000e+00 0.0000000e+00 
6.5400000e+00 5.9900000e+00 0.0000000e+00 
6.5400000e+00 6.0100000e+00 0.0000000e+00 
6.5400000e+00 6.0300000e+00 0.0000000e+00 
6.5666667e+00 5.9700000e+00 0.0000000e+00 
6.5666667e+00 5.9900000e+00 0.0000000e+00 
6.5666667e+00 6.0100000e+00 0.0000000e+00 
6.5666667e+00 6.0300000e+00 0.0000000e+00 
6.5933333e+00 5.9700000e+00 0.0000000e+00 
6.5933333e+00 5.9900000e+00 0.0000000e+00 
6.5933333e+00 6.0100000e+00 0.0000000e+00 
6.5933333e+00 6.0300000e+00 0.0000000e+00 
6.6200000e+00 5.9700000e+00 0.0000000e+00 
6.6200000e+00 5.9900000e+00 0.0000000e+00 
6.6200000e+00 6.0100000e+00 0.0000000e+00 
6.6200000e+00 6.0300000e+00 0.0000000e+00 
6.6466667e+00 5.9700000e+00 0.0000000e+00 
6.6466667e+00 5.9900000e+00 0.0000000e+00 
6.6466667e+00 6.0100000e+00 0.0000000e+00 
6.6466667e+00 6.0300000e+00 0.0000000e+00 
6.6733333e+00 5.9700000e+00 0.0000000e+00 
6.6733333e+00 5.9900000e+00 0.0000000e+00 
6.6733333e+00 6.0100000e+00 0.0000000e+00 
6.6733333e+00 6.0300000e+00 0.0000000e+00 
6.7000000e+00 5.9700000e+00 0.0000000e+00 
6.7000000e+00 5.9900000e+00 0.0000000e+00 
6.7000000e+00 6.0100000e+00 0.0000000e+00 
6.7000000e+00 6.0300000e+00 0.0000000e+00 
6.7266667e+00 5.9700000e+00 0.0000000e+00 
6.7266667e+00 5.9900000e+00 0.0000000e+00 
6.7266667e+00 6.0100000e+00 0.0000000e+00 
6.7266667e+00 6.0300000e+00 0.0000000e+00 
6.7533333e+00 5.9700000e+00 0.0000000e+00 
6.7533333e+00 5.9900000e+00 0.0000000e+00 
6.7533333e+00 6.0100000e+00 0.0000000e+00 
6.7533333e+00 6.0300000e+00 0.0000000e+00 
6.7800000e+00 5.9700000e+00 0.0000000e+00 
6.7800000e+00 5.9900000e+00 0.0000000e+00 
6.7800000e+00 6.0100000e+00 0.0000000e+00 
6.7800000e+00 6.0300000e+00 0.0000000e+00 
6.8066667e+00 5.9700000e+00 0.0000000e+00 
6.8066667e+00 5.9900000e+00 0.0000000e+00 
6.8066667e+00 6.0100000e+00 0.0000000e+00 
6.8066667e+00 6.0300000e+00 0.0000000e+00 
6.8333333e+00 5.9700000e+00 0.0000000e+00 
6.8333333e+00 5.9900000e+00 0.0000000e+00 
6.8333333e+00 6.0100000e+00 0.0000000e+00 
6.8333333e+00 6.0300000e+00 0.0000000e+00 
6.8600000e+00 5.9700000e+00 0.0000000e+00 
6.8600000e+00 5.9900000e+00 0.0000000e+00 
6.8600000e+00 6.0100000e+00 0.0000000e+00 
6.8600000e+00 6.0300000e+00 0.0000000e+00 
6.8866667e+00 5.9700000e+00 0.0000000e+00 
6.8866667e+00 5.9900000e+00 0.0000000e+00 
6.8866667e+00 6.0100000e+00 0.0000000e+00 
6.8866667e+00 6.0300000e+00 0.0000000e+00 
6.9133333e+00 5.9700000e+00 0.0000000e+00 
6.9133333e+00 5.9900000e+00 0.0000000e+00 
6.9133333e+00 6.0100000e+00 0.0000000e+00 
6.9133333e+00 6.0300000e+00 0.0000000e+00 
6.9400000e+00 5.9700000e+00 0.0000000e+00 
6.9400000e+00 5.9900000e+00 0.0000000e+00 
6.9400000e+00 6.0100000e+00 0.0000000e+00 
6.9400000e+00 6.0300000e+00 0.0000000e+00 
6.9666667e+00 5.9700000e+00 0.0000000e+00 
6.9666667e+00 5.9900000e+00 0.0000000e+00 
6.9666667e+00 6.0100000e+00 0.0000000e+00 
6.9666667e+00 6.0300000e+00 0.0000000e+00 
6.9933333e+00 5.9700000e+00 0.0000000e+00 
6.9933333e+00 5.9900000e+00 0.0000000e+00 
6.9933333e+00 6.0100000e+00 0.0000000e+00 
6.9933333e+00 6.0300000e+00 0.0000000e+00 
7.0200000e+00 5.9700000e+00 0.0000000e+00 
7.0200000e+00 5.9900000e+00 0.0000000e+00 
[...]
POINT_DATA 604
FIELD FieldData 2
DISPLACEMENT 3 604  float
0.0000000e+00 0.0000000e+00 0.0000000e+00 
0.0000000e+00 0.0000000e+00 0.0000000e+00 
1.1444655e-05 8.6035442e-06 0.0000000e+00 
3.7471618e-06 6.3481267e-06 0.0000000e+00 
0.0000000e+00 0.0000000e+00 0.0000000e+00 
-2.5871568e-06 6.2121999e-06 0.0000000e+00 
2.1132425e-05 2.3931037e-05 0.0000000e+00 
7.5991004e-06 2.2380522e-05 0.0000000e+00 
0.0000000e+00 0.0000000e+00 0.0000000e+00 
-1.0190666e-05 8.1520371e-06 0.0000000e+00 
-5.1555339e-06 2.2215991e-05 0.0000000e+00 
2.8957422e-05 4.6724878e-05 0.0000000e+00 
-1.8677368e-05 2.3461079e-05 0.0000000e+00 
1.0607385e-05 4.5458732e-05 0.0000000e+00 
-6.9112358e-06 4.5302051e-05 0.0000000e+00 
-2.5266617e-05 4.6251828e-05 0.0000000e+00 
3.4901448e-05 7.5023182e-05 0.0000000e+00 
1.3007927e-05 7.4083972e-05 0.0000000e+00 
-8.0780071e-06 7.3924659e-05 0.0000000e+00 
-2.9973569e-05 7.4543595e-05 0.0000000e+00 
3.9004399e-05 1.0720616e-04 0.0000000e+00 
1.4788823e-05 1.0658196e-04 0.0000000e+00 
-8.6340750e-06 1.0642019e-04 0.0000000e+00 
-3.2849631e-05 1.0671871e-04 0.0000000e+00 
4.1305060e-05 1.4165223e-04 0.0000000e+00 
1.5967397e-05 1.4133834e-04 0.0000000e+00 
-8.5936968e-06 1.4117523e-04 0.0000000e+00 
-3.3930372e-05 1.4116095e-04 0.0000000e+00 
4.1843096e-05 1.7677930e-04 0.0000000e+00 
1.6557513e-05 1.7677055e-04 0.0000000e+00 
-7.9675279e-06 1.7660764e-04 0.0000000e+00 
-3.3251268e-05 1.7628867e-04 0.0000000e+00 
4.0657776e-05 2.1103841e-04 0.0000000e+00 
1.6573540e-05 2.1132970e-04 0.0000000e+00 
-6.7662050e-06 2.1116836e-04 0.0000000e+00 
-3.0847741e-05 2.1055256e-04 0.0000000e+00 
3.7788258e-05 2.4291427e-04 0.0000000e+00 
1.6029688e-05 2.4350018e-04 0.0000000e+00 
-5.0005984e-06 2.4334153e-04 0.0000000e+00 
-2.6755445e-05 2.4243686e-04 0.0000000e+00 
3.3273412e-05 2.7092509e-04 0.0000000e+00 
1.4939713e-05 2.7179982e-04 0.0000000e+00 
-2.6819463e-06 2.7164461e-04 0.0000000e+00 
-2.1011460e-05 2.7045825e-04 0.0000000e+00 
2.7151506e-05 2.9362302e-04 0.0000000e+00 
1.3316778e-05 2.9478010e-04 0.0000000e+00 
1.7743906e-07 2.9462852e-04 0.0000000e+00 
-1.3652213e-05 2.9316762e-04 0.0000000e+00 
1.9460295e-05 3.0959413e-04 0.0000000e+00 
1.1173140e-05 3.1102638e-04 0.0000000e+00 
3.5646769e-06 3.1087777e-04 0.0000000e+00 
-4.7177078e-06 3.0914820e-04 0.0000000e+00 
1.0236245e-05 3.1745866e-04 0.0000000e+00 
8.5200554e-06 3.1915805e-04 0.0000000e+00 
7.4654527e-06 3.1901106e-04 0.0000000e+00 
5.7535794e-06 3.1701832e-04 0.0000000e+00 
-4.8534913e-07 3.1587082e-04 0.0000000e+00 
5.3674681e-06 3.1782828e-04 0.0000000e+00 
1.1864549e-05 3.1768041e-04 0.0000000e+00 
1.7720233e-05 3.1542848e-04 0.0000000e+00 
-1.2670623e-05 3.0351865e-04 0.0000000e+00 
1.7239551e-06 3.0572404e-04 0.0000000e+00 
1.6745081e-05 3.0557189e-04 0.0000000e+00 
3.1140873e-05 3.0306416e-04 0.0000000e+00 
-2.6287043e-05 2.7912425e-04 0.0000000e+00 
-2.4034391e-06 2.8156613e-04 0.0000000e+00 
2.2088568e-05 2.8140487e-04 0.0000000e+00 
4.5971188e-05 2.7864339e-04 0.0000000e+00 
-4.1303580e-05 2.4144397e-04 0.0000000e+00 
-7.0092614e-06 2.4410953e-04 0.0000000e+00 
2.7875013e-05 2.4393306e-04 0.0000000e+00 
6.2164925e-05 2.4091820e-04 0.0000000e+00 
-5.7691019e-05 1.8926830e-04 0.0000000e+00 
-1.2089837e-05 1.9214348e-04 0.0000000e+00 
3.4082349e-05 1.9194443e-04 0.0000000e+00 
7.9675400e-05 1.8867584e-04 0.0000000e+00 
-7.5421957e-05 1.2142226e-04 0.0000000e+00 
-1.7643339e-05 1.2449137e-04 0.0000000e+00 
4.0686920e-05 1.2426069e-04 0.0000000e+00 
9.8452358e-05 1.2073586e-04 0.0000000e+00 
-9.4471086e-05 3.6764634e-05 0.0000000e+00 
-2.3669966e-05 4.0010809e-05 0.0000000e+00 
4.7663226e-05 3.9738280e-05 0.0000000e+00 
1.1844463e-04 3.5953793e-05 0.0000000e+00 
-1.1481571e-04 -6.5811656e-05 0.0000000e+00 
-3.0171925e-05 -6.2407104e-05 0.0000000e+00 
5.4983689e-05 -6.2733452e-05 0.0000000e+00 
1.3960105e-04 -6.6783347e-05 0.0000000e+00 
-1.3643455e-04 -1.8738062e-04 0.0000000e+00 
-3.7153441e-05 -1.8383782e-04 0.0000000e+00 
6.2618708e-05 -1.8423147e-04 0.0000000e+00 
1.6186613e-04 -1.8855307e-04 0.0000000e+00 
-1.5930795e-04 -3.2898160e-04 0.0000000e+00 
-4.4620812e-05 -3.2532254e-04 0.0000000e+00 
7.0536315e-05 -3.2579855e-04 0.0000000e+00 
1.8518154e-04 -3.3040060e-04 0.0000000e+00 
-1.8341829e-04 -4.9161978e-04 0.0000000e+00 
-5.2582307e-05 -4.8786792e-04 0.0000000e+00 
7.8701769e-05 -4.8844294e-04 0.0000000e+00 
2.0948820e-04 -4.9333472e-04 0.0000000e+00 
-2.0874926e-04 -6.7626462e-04 0.0000000e+00 
-6.1048376e-05 -6.7244529e-04 0.0000000e+00 
8.7078616e-05 -6.7313774e-04 0.0000000e+00 
2.3472002e-04 -6.7833094e-04 0.0000000e+00 
-2.3528730e-04 -8.8385085e-04 0.0000000e+00 
-7.0031507e-05 -8.7999061e-04 0.0000000e+00 
9.5627724e-05 -8.8082013e-04 0.0000000e+00 
2.6081350e-04 -8.8632733e-04 0.0000000e+00 
-2.6302079e-04 -1.1152776e-03 0.0000000e+00 
-7.9546426e-05 -1.1114049e-03 0.0000000e+00 
1.0430842e-04 -1.1123931e-03 0.0000000e+00 
2.8770110e-04 -1.1182293e-03 0.0000000e+00 
-2.9194040e-04 -1.3714101e-03 0.0000000e+00 
-8.9609805e-05 -1.3675547e-03 0.0000000e+00 
1.1307775e-04 -1.3687243e-03 0.0000000e+00 
3.1531451e-04 -1.3749052e-03 0.0000000e+00 
-3.2203855e-04 -1.6530778e-03 0.0000000e+00 
-1.0024039e-04 -1.6492712e-03 0.0000000e+00 
1.2189089e-04 -1.6506469e-03 0.0000000e+00 
3.4358190e-04 -1.6571906e-03 0.0000000e+00 
-3.5330976e-04 -1.9610763e-03 0.0000000e+00 
-1.1145885e-04 -1.9573512e-03 0.0000000e+00 
1.3070079e-04 -1.9589587e-03 0.0000000e+00 
3.7243078e-04 -1.9658838e-03 0.0000000e+00 
-3.8575010e-04 -2.2961652e-03 0.0000000e+00 
-1.2328782e-04 -2.2925559e-03 0.0000000e+00 
1.3945841e-04 -2.2944227e-03 0.0000000e+00 
4.0178543e-04 -2.3017498e-03 0.0000000e+00 
-4.1935735e-04 -2.6590692e-03 0.0000000e+00 
-1.3575159e-04 -2.6556117e-03 0.0000000e+00 
1.4811308e-04 -2.6577665e-03 0.0000000e+00 
4.3156813e-04 -2.6655176e-03 0.0000000e+00 
-4.5413121e-04 -3.0504783e-03 0.0000000e+00 
-1.4887626e-04 -3.0472093e-03 0.0000000e+00 
1.5661209e-04 -3.0496821e-03 0.0000000e+00 
4.6170062e-04 -3.0578799e-03 0.0000000e+00 
-4.9007287e-04 -3.4710463e-03 0.0000000e+00 
-1.6268951e-04 -3.4680042e-03 0.0000000e+00 
1.6490137e-04 -3.4708264e-03 0.0000000e+00 
4.9210138e-04 -3.4794956e-03 0.0000000e+00 
-5.2718546e-04 -3.9213929e-03 0.0000000e+00 
-1.7722080e-04 -3.9186166e-03 0.0000000e+00 
1.7292569e-04 -3.9218203e-03 0.0000000e+00 
5.2268803e-04 -3.9309862e-03 0.0000000e+00 
-5.6547469e-04 -4.4021027e-03 0.0000000e+00 
-1.9250096e-04 -4.3996327e-03 0.0000000e+00 
1.8062813e-04 -4.4032515e-03 0.0000000e+00 
5.5338154e-04 -4.4129413e-03 0.0000000e+00 
-6.0494659e-04 -4.9137275e-03 0.0000000e+00 
-2.0856211e-04 -4.9116049e-03 0.0000000e+00 
1.8795083e-04 -4.9156732e-03 0.0000000e+00 
5.8409631e-04 -4.9259140e-03 0.0000000e+00 
-6.4560738e-04 -5.4567831e-03 0.0000000e+00 
-2.2543753e-04 -5.4550504e-03 0.0000000e+00 
1.9483402e-04 -5.4596032e-03 0.0000000e+00 
6.1474623e-04 -5.4704237e-03 0.0000000e+00 
-6.8746458e-04 -6.0317507e-03 0.0000000e+00 
-2.4316132e-04 -6.0304509e-03 0.0000000e+00 
2.0121606e-04 -6.0355242e-03 0.0000000e+00 
6.4524486e-04 -6.0469529e-03 0.0000000e+00 
-7.3052508e-04 -6.6390738e-03 0.0000000e+00 
-2.6176859e-04 -6.6382508e-03 0.0000000e+00 
2.0703496e-04 -6.6438814e-03 0.0000000e+00 
6.7549766e-04 -6.6559476e-03 0.0000000e+00 
-7.7479806e-04 -7.2791604e-03 0.0000000e+00 
-2.8129518e-04 -7.2788581e-03 0.0000000e+00 
2.1222738e-04 -7.2850828e-03 0.0000000e+00 
7.0541681e-04 -7.2978166e-03 0.0000000e+00 
-8.2029342e-04 -7.9523819e-03 0.0000000e+00 
-3.0177781e-04 -7.9526449e-03 0.0000000e+00 
2.1673023e-04 -7.9595012e-03 0.0000000e+00 
7.3491251e-04 -7.9729332e-03 0.0000000e+00 
-8.6702209e-04 -8.6590760e-03 0.0000000e+00 
-3.2325357e-04 -8.6599487e-03 0.0000000e+00 
2.2047999e-04 -8.6674744e-03 0.0000000e+00 
7.6389526e-04 -8.6816355e-03 0.0000000e+00 
-9.1499504e-04 -9.3995440e-03 0.0000000e+00 
-3.4575999e-04 -9.4010716e-03 0.0000000e+00 
2.2341299e-04 -9.4093045e-03 0.0000000e+00 
7.9227477e-04 -9.4242258e-03 0.0000000e+00 
-9.6422410e-04 -1.0174054e-02 0.0000000e+00 
-3.6933471e-04 -1.0176281e-02 0.0000000e+00 
2.2546542e-04 -1.0185259e-02 0.0000000e+00 
8.1996155e-04 -1.0200972e-02 0.0000000e+00 
-1.0147211e-03 -1.0982838e-02 0.0000000e+00 
-3.9401562e-04 -1.0985809e-02 0.0000000e+00 
2.2657379e-04 -1.0995571e-02 0.0000000e+00 
8.4686597e-04 -1.1012106e-02 0.0000000e+00 
-1.0664981e-03 -1.1826094e-02 0.0000000e+00 
-4.1984045e-04 -1.1829854e-02 0.0000000e+00 
2.2667477e-04 -1.1840437e-02 0.0000000e+00 
8.7289930e-04 -1.1857826e-02 0.0000000e+00 
-1.1195680e-03 -1.2703989e-02 0.0000000e+00 
-4.4684685e-04 -1.2708582e-02 0.0000000e+00 
2.2570562e-04 -1.2720022e-02 0.0000000e+00 
8.9797400e-04 -1.2738297e-02 0.0000000e+00 
-1.1739430e-03 -1.3616654e-02 0.0000000e+00 
-4.7507218e-04 -1.3622122e-02 0.0000000e+00 
2.2360427e-04 -1.3634458e-02 0.0000000e+00 
9.2200304e-04 -1.3653647e-02 0.0000000e+00 
-1.2296359e-03 -1.4564188e-02 0.0000000e+00 
-5.0455325e-04 -1.4570575e-02 0.0000000e+00 
2.2030949e-04 -1.4583843e-02 0.0000000e+00 
9.4490093e-04 -1.4603978e-02 0.0000000e+00 
-1.2866585e-03 -1.5546658e-02 0.0000000e+00 
-5.3532625e-04 -1.5554007e-02 0.0000000e+00 
2.1576112e-04 -1.5568242e-02 0.0000000e+00 
9.6658324e-04 -1.5589352e-02 0.0000000e+00 
-1.3450233e-03 -1.6564102e-02 0.0000000e+00 
-5.6742700e-04 -1.6572452e-02 0.0000000e+00 
2.0990075e-04 -1.6587689e-02 0.0000000e+00 
9.8696666e-04 -1.6609804e-02 0.0000000e+00 
-1.4047441e-03 -1.7616523e-02 0.0000000e+00 
-6.0089030e-04 -1.7625916e-02 0.0000000e+00 
2.0267085e-04 -1.7642190e-02 0.0000000e+00 
1.0059763e-03 -1.7665337e-02 0.0000000e+00 
-1.4658325e-03 -1.8703901e-02 0.0000000e+00 
-6.3574992e-04 -1.8714375e-02 0.0000000e+00 
1.9401597e-04 -1.8731719e-02 0.0000000e+00 
1.0235315e-03 -1.8755927e-02 0.0000000e+00 
-1.5282974e-03 -1.9826183e-02 0.0000000e+00 
-6.7203839e-04 -1.9837776e-02 0.0000000e+00 
1.8388104e-04 -1.9856223e-02 0.0000000e+00 
1.0395566e-03 -1.9881518e-02 0.0000000e+00 
-1.5921478e-03 -2.0983288e-02 0.0000000e+00 
-7.0978645e-04 -2.0996037e-02 0.0000000e+00 
1.7221214e-04 -2.1015618e-02 0.0000000e+00 
1.0539765e-03 -2.1042025e-02 0.0000000e+00 
-1.6573890e-03 -2.2175100e-02 0.0000000e+00 
-7.4902361e-04 -2.2189042e-02 0.0000000e+00 
1.5895761e-04 -2.2209786e-02 0.0000000e+00 
1.0667107e-03 -2.2237328e-02 0.0000000e+00 
-1.7240280e-03 -2.3401479e-02 0.0000000e+00 
-7.8977783e-04 -2.3416647e-02 0.0000000e+00 
1.4406713e-04 -2.3438582e-02 0.0000000e+00 
1.0776901e-03 -2.3467283e-02 0.0000000e+00 
-1.7920704e-03 -2.4662251e-02 0.0000000e+00 
-8.3207587e-04 -2.4678677e-02 0.0000000e+00 
1.2749365e-04 -2.4701830e-02 0.0000000e+00 
1.0868473e-03 -2.4731711e-02 0.0000000e+00 
-1.8615218e-03 -2.5957220e-02 0.0000000e+00 
-8.7594256e-04 -2.5974934e-02 0.0000000e+00 
1.0919234e-04 -2.5999331e-02 0.0000000e+00 
1.0941177e-03 -2.6030413e-02 0.0000000e+00 
-1.9323863e-03 -2.7286160e-02 0.0000000e+00 
-9.2140119e-04 -2.7305191e-02 0.0000000e+00 
8.9121612e-05 -2.7330856e-02 0.0000000e+00 
1.0994400e-03 -2.7363158e-02 0.0000000e+00 
-2.0046675e-03 -2.8648823e-02 0.0000000e+00 
-9.6847344e-04 -2.8669198e-02 0.0000000e+00 
6.7241443e-05 -2.8696153e-02 0.0000000e+00 
1.1027573e-03 -2.8729690e-02 0.0000000e+00 
-2.0783687e-03 -3.0044938e-02 0.0000000e+00 
-1.0171793e-03 -3.0066682e-02 0.0000000e+00 
4.3514815e-05 -3.0094947e-02 0.0000000e+00 
1.1040157e-03 -3.0129738e-02 0.0000000e+00 
-2.1534918e-03 -3.1474211e-02 0.0000000e+00 
-1.0675370e-03 -3.1497347e-02 0.0000000e+00 
1.7907405e-05 -3.1526940e-02 0.0000000e+00 
1.1031639e-03 -3.1562999e-02 0.0000000e+00 
-2.2300375e-03 -3.2936327e-02 0.0000000e+00 
-1.1195630e-03 -3.2960876e-02 0.0000000e+00 
-9.6120204e-06 -3.2991816e-02 0.0000000e+00 
1.1001539e-03 -3.3029156e-02 0.0000000e+00 
-2.3080084e-03 -3.4430954e-02 0.0000000e+00 
-1.1732719e-03 -3.4456935e-02 0.0000000e+00 
-3.9072418e-05 -3.4489236e-02 0.0000000e+00 
1.0949476e-03 -3.4527869e-02 0.0000000e+00 
-2.3874030e-03 -3.5957741e-02 0.0000000e+00 
-1.2286761e-03 -3.5985171e-02 0.0000000e+00 
-7.0499461e-05 -3.6018848e-02 0.0000000e+00 
1.0875024e-03 -3.6058785e-02 0.0000000e+00 
-2.4682167e-03 -3.7516317e-02 0.0000000e+00 
-1.2857860e-03 -3.7545213e-02 0.0000000e+00 
-1.0391733e-04 -3.7580277e-02 0.0000000e+00 
1.0777827e-03 -3.7621525e-02 0.0000000e+00 
-2.5504442e-03 -3.9106297e-02 0.0000000e+00 
-1.3446092e-03 -3.9136671e-02 0.0000000e+00 
-1.3934799e-04 -3.9173134e-02 0.0000000e+00 
1.0657536e-03 -3.9215702e-02 0.0000000e+00 
-2.6340758e-03 -4.0727272e-02 0.0000000e+00 
-1.4051512e-03 -4.0759137e-02 0.0000000e+00 
-1.7681028e-04 -4.0797006e-02 0.0000000e+00 
1.0513769e-03 -4.0840896e-02 0.0000000e+00 
-2.7191030e-03 -4.2378818e-02 0.0000000e+00 
-1.4674156e-03 -4.2412183e-02 0.0000000e+00 
-2.1632087e-04 -4.2451464e-02 0.0000000e+00 
1.0346258e-03 -4.2496682e-02 0.0000000e+00 
-2.8055162e-03 -4.4060494e-02 0.0000000e+00 
-1.5314041e-03 -4.4095366e-02 0.0000000e+00 
-2.5789256e-04 -4.4136064e-02 0.0000000e+00 
1.0154768e-03 -4.4182609e-02 0.0000000e+00 
-2.8933047e-03 -4.5771845e-02 0.0000000e+00 
-1.5971162e-03 -4.5808230e-02 0.0000000e+00 
-3.0153537e-04 -4.5850347e-02 0.0000000e+00 
9.9390909e-04 -4.5898220e-02 0.0000000e+00 
-2.9824563e-03 -4.7512401e-02 0.0000000e+00 
-1.6645497e-03 -4.7550302e-02 0.0000000e+00 
-3.4725649e-04 -4.7593840e-02 0.0000000e+00 
9.6990619e-04 -4.7643039e-02 0.0000000e+00 
-3.0729578e-03 -4.9281683e-02 0.0000000e+00 
-1.7336998e-03 -4.9321101e-02 0.0000000e+00 
-3.9506051e-04 -4.9366059e-02 0.0000000e+00 
9.4345423e-04 -4.9416582e-02 0.0000000e+00 
-3.1647943e-03 -5.1079197e-02 0.0000000e+00 
-1.8045601e-03 -5.1120132e-02 0.0000000e+00 
-4.4494848e-04 -5.1166507e-02 0.0000000e+00 
9.1454356e-04 -5.1218349e-02 0.0000000e+00 
-3.2579509e-03 -5.2904440e-02 0.0000000e+00 
-1.8771226e-03 -5.2946889e-02 0.0000000e+00 
-4.9691979e-04 -5.2994677e-02 0.0000000e+00 
8.8316881e-04 -5.3047831e-02 0.0000000e+00 
-3.3524117e-03 -5.4756901e-02 0.0000000e+00 
-1.9513774e-03 -5.4800860e-02 0.0000000e+00 
-5.5097069e-04 -5.4850055e-02 0.0000000e+00 
8.4932700e-04 -5.4904516e-02 0.0000000e+00 
-3.4481593e-03 -5.6636061e-02 0.0000000e+00 
-2.0273128e-03 -5.6681524e-02 0.0000000e+00 
-6.0709502e-04 -5.6732118e-02 0.0000000e+00 
8.1301915e-04 -5.6787874e-02 0.0000000e+00 
-3.5451757e-03 -5.8541394e-02 0.0000000e+00 
-2.1049155e-03 -5.8588353e-02 0.0000000e+00 
-6.6528429e-04 -5.8640338e-02 0.0000000e+00 
7.7424847e-04 -5.8697381e-02 0.0000000e+00 
-3.6434415e-03 -6.0472367e-02 0.0000000e+00 
-2.1841702e-03 -6.0520813e-02 0.0000000e+00 
-7.2552761e-04 -6.0574178e-02 0.0000000e+00 
7.3302182e-04 -6.0632496e-02 0.0000000e+00 
-3.7429363e-03 -6.2428445e-02 0.0000000e+00 
-2.2650609e-03 -6.2478365e-02 0.0000000e+00 
-7.8781160e-04 -6.2533098e-02 0.0000000e+00 
6.8934799e-04 -6.2592679e-02 0.0000000e+00 
-3.8436426e-03 -6.4409084e-02 0.0000000e+00 
-2.3475696e-03 -6.4460468e-02 0.0000000e+00 
-8.5212096e-04 -6.4516556e-02 0.0000000e+00 
6.4324344e-04 -6.4577385e-02 0.0000000e+00 
-3.9455385e-03 -6.6413744e-02 0.0000000e+00 
-2.4316769e-03 -6.6466576e-02 0.0000000e+00 
-9.1843791e-04 -6.6524006e-02 0.0000000e+00 
5.9472120e-04 -6.6586069e-02 0.0000000e+00 
-4.0485990e-03 -6.8441878e-02 0.0000000e+00 
-2.5173615e-03 -6.8496145e-02 0.0000000e+00 
-9.8674369e-04 -6.8554899e-02 0.0000000e+00 
5.4380005e-04 -6.8618179e-02 0.0000000e+00 
-4.1528000e-03 -7.0492938e-02 0.0000000e+00 
-2.6046002e-03 -7.0548622e-02 0.0000000e+00 
-1.0570180e-03 -7.0608686e-02 0.0000000e+00 
4.9049825e-04 -7.0673167e-02 0.0000000e+00 
-4.2581118e-03 -7.2566370e-02 0.0000000e+00 
-2.6933684e-03 -7.2623455e-02 0.0000000e+00 
-1.1292385e-03 -7.2684809e-02 0.0000000e+00 
4.3483120e-04 -7.2750470e-02 0.0000000e+00 
-4.3645080e-03 -7.4661618e-02 0.0000000e+00 
-2.7836403e-03 -7.4720084e-02 0.0000000e+00 
-1.2033813e-03 -7.4782709e-02 0.0000000e+00 
3.7682272e-04 -7.4849532e-02 0.0000000e+00 
-4.4719607e-03 -7.6778123e-02 0.0000000e+00 
-2.8753889e-03 -7.6837950e-02 0.0000000e+00 
-1.2794203e-03 -7.6901825e-02 0.0000000e+00 
3.1649895e-04 -7.6969788e-02 0.0000000e+00 
-4.5804421e-03 -7.8915327e-02 0.0000000e+00 
-2.9685861e-03 -7.8976493e-02 0.0000000e+00 
-1.3573276e-03 -7.9041597e-02 0.0000000e+00 
2.5388725e-04 -7.9110680e-02 0.0000000e+00 
-4.6899234e-03 -8.1072671e-02 0.0000000e+00 
-3.0632029e-03 -8.1135153e-02 0.0000000e+00 
-1.4370732e-03 -8.1201464e-02 0.0000000e+00 
1.8901770e-04 -8.1271644e-02 0.0000000e+00 
-4.8003758e-03 -8.3249596e-02 0.0000000e+00 
-3.1592093e-03 -8.3313371e-02 0.0000000e+00 
-1.5186264e-03 -8.3380865e-02 0.0000000e+00 
1.2192280e-04 -8.3452119e-02 0.0000000e+00 
-4.9117705e-03 -8.5445547e-02 0.0000000e+00 
-3.2565746e-03 -8.5510590e-02 0.0000000e+00 
-1.6019548e-03 -8.5579243e-02 0.0000000e+00 
5.2636207e-05 -8.5651548e-02 0.0000000e+00 
-5.0240778e-03 -8.7659970e-02 0.0000000e+00 
-3.3552674e-03 -8.7726256e-02 0.0000000e+00 
-1.6870250e-03 -8.7796044e-02 0.0000000e+00 
-1.8806409e-05 -8.7869374e-02 0.0000000e+00 
-5.1372678e-03 -8.9892315e-02 0.0000000e+00 
-3.4552561e-03 -8.9959818e-02 0.0000000e+00 
-1.7738020e-03 -9.0030714e-02 0.0000000e+00 
-9.2368372e-05 -9.0105047e-02 0.0000000e+00 
-5.2513148e-03 -9.2142035e-02 0.0000000e+00 
-3.5565080e-03 -9.2210728e-02 0.0000000e+00 
-1.8622500e-03 -9.2282707e-02 0.0000000e+00 
-1.6800764e-04 -9.2358017e-02 0.0000000e+00 
-5.3661888e-03 -9.4408591e-02 0.0000000e+00 
-3.6589902e-03 -9.4478446e-02 0.0000000e+00 
-1.9523322e-03 -9.4551483e-02 0.0000000e+00 
-2.4568578e-04 -9.4627744e-02 0.0000000e+00 
-5.4818578e-03 -9.6691447e-02 0.0000000e+00 
-3.7626690e-03 -9.6762437e-02 0.0000000e+00 
-2.0440116e-03 -9.6836504e-02 0.0000000e+00 
-3.2536069e-04 -9.6913690e-02 0.0000000e+00 
-5.5982913e-03 -9.8990071e-02 0.0000000e+00 
-3.8675094e-03 -9.9062169e-02 0.0000000e+00 
-2.1372508e-03 -9.9137239e-02 0.0000000e+00 
-4.0699201e-04 -9.9215324e-02 0.0000000e+00 
-5.7154540e-03 -1.0130393e-01 0.0000000e+00 
-3.9734760e-03 -1.0137711e-01 0.0000000e+00 
-2.2320115e-03 -1.0145316e-01 0.0000000e+00 
-4.9054204e-04 -1.0153211e-01 0.0000000e+00 
-5.8333147e-03 -1.0363251e-01 0.0000000e+00 
-4.0805332e-03 -1.0370674e-01 0.0000000e+00 
-2.3282551e-03 -1.0378373e-01 0.0000000e+00 
-5.7596762e-04 -1.0386353e-01 0.0000000e+00 
-5.9518416e-03 -1.0597528e-01 0.0000000e+00 
-4.1886452e-03 -1.0605053e-01 0.0000000e+00 
-2.4259417e-03 -1.0612844e-01 0.0000000e+00 
-6.6322427e-04 -1.0620906e-01 0.0000000e+00 
-6.0710039e-03 -1.0833173e-01 0.0000000e+00 
-4.2977762e-03 -1.0840796e-01 0.0000000e+00 
-2.5250310e-03 -1.0848677e-01 0.0000000e+00 
-7.5226756e-04 -1.0856817e-01 0.0000000e+00 
-6.1907702e-03 -1.1070135e-01 0.0000000e+00 
-4.4078905e-03 -1.1077854e-01 0.0000000e+00 
-2.6254823e-03 -1.1085820e-01 0.0000000e+00 
-8.4305164e-04 -1.1094037e-01 0.0000000e+00 
-6.3111097e-03 -1.1308363e-01 0.0000000e+00 
-4.5189519e-03 -1.1316176e-01 0.0000000e+00 
-2.7272546e-03 -1.1324225e-01 0.0000000e+00 
-9.3553088e-04 -1.1332516e-01 0.0000000e+00 
-6.4319920e-03 -1.1547809e-01 0.0000000e+00 
-4.6309245e-03 -1.1555711e-01 0.0000000e+00 
-2.8303064e-03 -1.1563841e-01 0.0000000e+00 
-1.0296583e-03 -1.1572202e-01 0.0000000e+00 
-6.5533869e-03 -1.1788423e-01 0.0000000e+00 
-4.7437727e-03 -1.1796412e-01 0.0000000e+00 
-2.9345963e-03 -1.1804619e-01 0.0000000e+00 
-1.1253864e-03 -1.1813048e-01 0.0000000e+00 
-6.6752653e-03 -1.2030157e-01 0.0000000e+00 
-4.8574609e-03 -1.2038230e-01 0.0000000e+00 
-3.0400828e-03 -1.2046512e-01 0.0000000e+00 
-1.2226679e-03 -1.2055006e-01 0.0000000e+00 
-6.7975982e-03 -1.2272964e-01 0.0000000e+00 
-4.9719541e-03 -1.2281118e-01 0.0000000e+00 
-3.1467245e-03 -1.2289472e-01 0.0000000e+00 
-1.3214549e-03 -1.2298029e-01 0.0000000e+00 
-6.9203567e-03 -1.2516799e-01 0.0000000e+00 
-5.0872178e-03 -1.2525030e-01 0.0000000e+00 
-3.2544798e-03 -1.2533452e-01 0.0000000e+00 
-1.4216997e-03 -1.2542069e-01 0.0000000e+00 
-7.0435175e-03 -1.2761615e-01 0.0000000e+00 
-5.2032180e-03 -1.2769921e-01 0.0000000e+00 
-3.3633075e-03 -1.2778409e-01 0.0000000e+00 
-1.5233521e-03 -1.2787083e-01 0.0000000e+00 