# vtk DataFile Version 4.0
vtk output
ASCII
DATASET UNSTRUCTURED_GRID
POINTS 604 float
5.5000000e+00 5.9700000e+00 0.0000000e+00 
5.5000000e+00 5.9900000e+00 0.0000000e+00 
5.5266667e+00 5.9700000e+00 0.0000000e+00 
5.5266667e+00 5.9900000e+00 0.0000000e+00 
5.5000000e+00 6.0100000e+00 0.0000000e+00 
5.5266667e+00 6.0100000e+00 0.0000000e+00 
5.5533333e+00 5.9700000e+00 0.0000000e+00 
5.5533333e+00 5.9900000e+00 0.0000000e+00 
5.5000000e+00 6.0300000e+00 0.0000000e+00 
5.5266667e+00 6.0300000e+00 0.0000000e+00 
5.5533333e+00 6.0100000e+00 0.0000000e+00 
5.5800000e+00 5.9700000e+00 0.0000000e+00 
5.5533333e+00 6.0300000e+00 0.0000000e+00 
5.5800000e+00 5.9900000e+00 0.0000000e+00 
5.5800000e+00 6.0100000e+00 0.0000000e+00 
5.5800000e+00 6.0300000e+00 0.0000000e+00 
5.6066667e+00 5.9700000e+00 0.0000000e+00 
5.6066667e+00 5.9900000e+00 0.0000000e+00 
5.6066667e+00 6.0100000e+00 0.0000000e+00 
5.6066667e+00 6.0300000e+00 0.0000000e+00 
5.6333333e+00 5.9700000e+00 0.0000000e+00 
5.6333333e+00 5.9900000e+00 0.0000000e+00 
5.6333333e+00 6.0100000e+00 0.0000000e+00 
5.6333333e+00 6.0300000e+00 0.0000000e+00 
5.6600000e+00 5.9700000e+00 0.0000000e+00 
5.6600000e+00 5.9900000e+00 0.0000000e+00 
5.6600000e+00 6.0100000e+00 0.0000000e+00 
5.6600000e+00 6.0300000e+00 0.0000000e+00 
5.6866667e+00 5.9700000e+00 0.0000000e+00 
5.6866667e+00 5.9900000e+00 0.0000000e+00 
5.6866667e+00 6.0100000e+00 0.0000000e+00 
5.6866667e+00 6.0300000e+00 0.0000000e+00 
5.7133333e+00 5.9700000e+00 0.0000000e+00 
5.7133333e+00 5.9900000e+00 0.0000000e+00 
5.7133333e+00 6.0100000e+00 0.0000000e+00 
5.7133333e+00 6.0300000e+00 0.0000000e+00 
5.7400000e+00 5.9700000e+00 0.0000000e+00 
5.7400000e+00 5.9900000e+00 0.0000000e+00 
5.7400000e+00 6.0100000e+00 0.0000000e+00 
5.7400000e+00 6.0300000e+00 0.0000000e+00 
5.7666667e+00 5.9700000e+00 0.0000000e+00 
5.7666667e+00 5.9900000e+00 0.0000000e+00 
5.7666667e+00 6.0100000e+00 0.0000000e+00 
5.7666667e+00 6.0300000e+00 0.0000000e+00 
5.7933333e+00 5.9700000e+00 0.0000000e+00 
5.7933333e+00 5.9900000e+00 0.0000000e+00 
5.7933333e+00 6.0100000e+00 0.0000000e+00 
5.7933333e+00 6.0300000e+00 0.0000000e+00 
5.8200000e+00 5.9700000e+00 0.0000000e+00 
5.8200000e+00 5.9900000e+00 0.0000000e+00 
5.8200000e+00 6.0100000e+00 0.0000000e+00 
5.8200000e+00 6.0300000e+00 0.0000000e+00 
5.8466667e+00 5.9700000e+00 0.0000000e+00 
5.8466667e+00 5.9900000e+00 0.0000000e+00 
5.8466667e+00 6.0100000e+00 0.0000000e+00 
5.8466667e+00 6.0300000e+00 0.0000000e+00 
5.8733333e+00 5.9700000e+00 0.0000000e+00 
5.8733333e+00 5.9900000e+00 0.0000000e+00 
5.8733333e+00 6.0100000e+00 0.0000000e+00 
5.8733333e+00 6.0300000e+00 0.0000000e+00 
5.9000000e+00 5.9700000e+00 0.0000000e+00 
5.9000000e+00 5.9900000e+00 0.0000000e+00 
5.9000000e+00 6.0100000e+00 0.0000000e+00 
5.9000000e+00 6.0300000e+00 0.0000000e+00 
5.9266667e+00 5.9700000e+00 0.0000000e+00 
5.9266667e+00 5.9900000e+00 0.0000000e+00 
5.9266667e+00 6.0100000e+00 0.0000000e+00 
5.9266667e+00 6.0300000e+00 0.0000000e+00 
5.9533333e+00 5.9700000e+00 0.0000000e+00 
5.9533333e+00 5.9900000e+00 0.0000000e+00 
5.9533333e+00 6.0100000e+00 0.0000000e+00 
5.9533333e+00 6.0300000e+00 0.0000000e+00 
5.9800000e+00 5.9700000e+00 0.0000000e+00 
5.9800000e+00 5.9900000e+00 0.0000000e+00 
5.9800000e+00 6.0100000e+00 0.0000000e+00 
5.9800000e+00 6.0300000e+00 0.0000000e+00 
6.0066667e+00 5.9700000e+00 0.0000000e+00 
6.0066667e+00 5.9900000e+00 0.0000000e+00 
6.0066667e+00 6.0100000e+00 0.0000000e+00 
6.0066667e+00 6.0300000e+00 0.0000000e+00 
6.0333333e+00 5.9700000e+00 0.0000000e+00 
6.0333333e+00 5.9900000e+00 0.0000000e+00 
6.0333333e+00 6.0100000e+00 0.0000000e+00 
6.0333333e+00 6.0300000e+00 0.0000000e+00 
6.0600000e+00 5.9700000e+00 0.0000000e+00 
6.0600000e+00 5.9900000e+00 0.0000000e+00 
6.0600000e+00 6.0100000e+00 0.0000000e+00 
6.0600000e+00 6.0300000e+00 0.0000000e+00 
6.0866667e+00 5.9700000e+00 0.0000000e+00 
6.0866667e+00 5.9900000e+00 0.0000000e+00 
6.0866667e+00 6.0100000e+00 0.0000000e+00 
6.0866667e+00 6.0300000e+00 0.0000000e+00 
6.1133333e+00 5.9700000e+00 0.0000000e+00 
6.1133333e+00 5.9900000e+00 0.0000000e+00 
6.1133333e+00 6.0100000e+00 0.0000000e+00 
6.1133333e+00 6.0300000e+00 0.0000000e+00 
6.1400000e+00 5.9700000e+00 0.0000000e+00 
6.1400000e+00 5.9900000e+00 0.0000000e+00 
6.1400000e+00 6.0100000e+00 0.0000000e+00 
6.1400000e+00 6.0300000e+00 0.0000000e+00 
6.1666667e+00 5.9700000e+00 0.0000000e+00 
6.1666667e+00 5.9900000e+00 0.0000000e+00 
6.1666667e+00 6.0100000e+00 0.0000000e+00 
6.1666667e+00 6.0300000e+00 0.0000000e+00 
6.1933333e+00 5.9700000e+00 0.0000000e+00 
6.1933333e+00 5.9900000e+00 0.0000000e+00 
6.1933333e+00 6.0100000e+00 0.0000000e+00 
6.1933333e+00 6.0300000e+00 0.0000000e+00 
6.2200000e+00 5.9700000e+00 0.0000000e+00 
6.2200000e+00 5.9900000e+00 0.0000000e+00 
6.2200000e+00 6.0100000e+00 0.0000000e+00 
6.2200000e+00 6.0300000e+00 0.0000000e+00 
6.2466667e+00 5.9700000e+00 0.0000000e+00 
6.2466667e+00 5.9900000e+00 0.0000000e+00 
6.2466667e+00 6.0100000e+00 0.0000000e+00 
6.2466667e+00 6.0300000e+00 0.0000000e+00 
6.2733333e+00 5.9700000e+00 0.0000000e+00 
6.2733333e+00 5.9900000e+00 0.0000000e+00 
6.2733333e+00 6.0100000e+00 0.0000000e+00 
6.2733333e+00 6.0300000e+00 0.0000000e+00 
6.3000000e+00 5.9700000e+00 0.0000000e+00 
6.3000000e+00 5.9900000e+00 0.0000000e+00 
6.3000000e+00 6.0100000e+00 0.0000000e+00 
6.3000000e+00 6.0300000e+00 0.0000000e+00 
6.3266667e+00 5.9700000e+00 0.0000000e+00 
6.3266667e+00 5.9900000e+00 0.0000000e+00 
6.3266667e+00 6.0100000e+00 0.0000000e+00 
6.3266667e+00 6.0300000e+00 0.0000000e+00 
6.3533333e+00 5.9700000e+00 0.0000000e+00 
6.3533333e+00 5.9900000e+00 0.0000000e+00 
6.3533333e+00 6.0100000e+00 0.0000000e+00 
6.3533333e+00 6.0300000e+00 0.0000000e+00 
6.3800000e+00 5.9700000e+00 0.0000000e+00 
6.3800000e+00 5.9900000e+00 0.0000000e+00 
6.3800000e+00 6.0100000e+00 0.0000000e+00 
6.3800000e+00 6.0300000e+00 0.0000000e+00 
6.4066667e+00 5.9700000e+00 0.0000000e+00 
6.4066667e+00 5.9900000e+00 0.0000000e+00 
6.4066667e+00 6.0100000e+00 0.0000000e+00 
6.4066667e+00 6.0300000e+00 0.0000000e+00 
6.4333333e+00 5.9700000e+00 0.0000000e+00 
6.4333333e+00 5.9900000e+00 0.0000000e+00 
6.4333333e+00 6.0100000e+00 0.0000000e+00 
6.4333333e+00 6.0300000e+00 0.0000000e+00 
6.4600000e+00 5.9700000e+00 0.0000000e+00 
6.4600000e+00 5.9900000e+00 0.0000000e+00 
6.4600000e+00 6.0100000e+00 0.0000000e+00 
6.4600000e+00 6.0300000e+00 0.0000000e+00 
6.4866667e+00 5.9700000e+00 0.0000000e+00 
6.4866667e+00 5.9900000e+00 0.0000000e+00 
6.4866667e+00 6.0100000e+00 0.0000000e+00 
6.4866667e+00 6.0300000e+00 0.0000000e+00 
6.5133333e+00 5.9700000e+00 0.0000000e+00 
6.5133333e+00 5.9900000e+00 0.0000000e+00 
6.5133333e+00 6.0100000e+00 0.0000000e+00 
6.5133333e+00 6.0300000e+00 0.0000000e+00 
6.5400000e+00 5.9700000e+00 0.0000000e+00 
6.5400000e+00 5.9900000e+00 0.0000000e+00 
6.5400000e+00 6.0100000e+00 0.0000000e+00 
6.5400000e+00 6.0300000e+00 0.0000000e+00 
6.5666667e+00 5.9700000e+00 0.0000000e+00 
6.5666667e+00 5.9900000e+00 0.0000000e+00 
6.5666667e+00 6.0100000e+00 0.0000000e+00 
6.5666667e+00 6.0300000e+00 0.0000000e+00 
6.5933333e+00 5.9700000e+00 0.0000000e+00 
6.5933333e+00 5.9900000e+00 0.0000000e+00 
6.5933333e+00 6.0100000e+00 0.0000000e+00 
6.5933333e+00 6.0300000e+00 0.0000000e+00 
6.6200000e+00 5.9700000e+00 0.0000000e+00 
6.6200000e+00 5.9900000e+00 0.0000000e+00 
6.6200000e+00 6.0100000e+00 0.0000000e+00 
6.6200000e+00 6.0300000e+00 0.0000000e+00 
6.6466667e+00 5.9700000e+00 0.0000000e+00 
6.6466667e+00 5.9900000e+00 0.0000000e+00 
6.6466667e+00 6.0100000e+00 0.0000000e+00 
6.6466667e+00 6.0300000e+00 0.0000000e+00 
6.6733333e+00 5.9700000e+00 0.0000000e+00 
6.6733333e+00 5.9900000e+00 0.0000000e+00 
6.6733333e+00 6.0100000e+00 0.0000000e+00 
6.6733333e+00 6.0300000e+00 0.0000000e+00 
6.7000000e+00 5.9700000e+00 0.0000000e+00 
6.7000000e+00 5.9900000e+00 0.0000000e+00 
6.7000000e+00 6.0100000e+00 0.0000000e+00 
6.7000000e+00 6.0300000e+00 0.0000000e+00 
6.7266667e+00 5.9700000e+00 0.0000000e+00 
6.7266667e+00 5.9900000e+00 0.0000000e+00 
6.7266667e+00 6.0100000e+00 0.0000000e+00 
6.7266667e+00 6.0300000e+00 0.0000000e+00 
6.7533333e+00 5.9700000e+00 0.0000000e+00 
6.7533333e+00 5.9900000e+00 0.0000000e+00 
6.7533333e+00 6.0100000e+00 0.0000000e+00 
6.7533333e+00 6.0300000e+00 0.0000000e+00 
6.7800000e+00 5.9700000e+00 0.0000000e+00 
6.7800000e+00 5.9900000e+00 0.0000000e+00 
6.7800000e+00 6.0100000e+00 0.0000000e+00 
6.7800000e+00 6.0300000e+00 0.0000000e+00 
6.8066667e+00 5.9700000e+00 0.0000000e+00 
6.8066667e+00 5.9900000e+00 0.0000000e+00 
6.8066667e+00 6.0100000e+00 0.0000000e+00 
6.8066667e+00 6.0300000e+00 0.0000000e+00 
6.8333333e+00 5.9700000e+00 0.0000000e+00 
6.8333333e+00 5.9900000e+00 0.0000000e+00 
6.8333333e+00 6.0100000e+00 0.0000000e+00 
6.8333333e+00 6.0300000e+00 0.0000000e+00 
6.8600000e+00 5.9700000e+00 0.0000000e+00 
6.8600000e+00 5.9900000e+00 0.0000000e+00 
6.8600000e+00 6.0100000e+00 0.0000000e+00 
6.8600000e+00 6.0300000e+00 0.0000000e+00 
6.8866667e+00 5.9700000e+00 0.0000000e+00 
6.8866667e+00 5.9900000e+00 0.0000000e+00 
6.8866667e+00 6.0100000e+00 0.0000000e+00 
6.8866667e+00 6.0300000e+00 0.0000000e+00 
6.9133333e+00 5.9700000e+00 0.0000000e+00 
6.9133333e+00 5.9900000e+00 0.0000000e+00 
6.9133333e+00 6.0100000e+00 0.0000000e+00 
6.9133333e+00 6.0300000e+00 0.0000000e+00 
6.9400000e+00 5.9700000e+00 0.0000000e+00 
6.9400000e+00 5.9900000e+00 0.0000000e+00 
6.9400000e+00 6.0100000e+00 0.0000000e+00 
6.9400000e+00 6.0300000e+00 0.0000000e+00 
6.9666667e+00 5.9700000e+00 0.0000000e+00 
6.9666667e+00 5.9900000e+00 0.0000000e+00 
6.9666667e+00 6.0100000e+00 0.0000000e+00 
6.9666667e+00 6.0300000e+00 0.0000000e+00 
6.9933333e+00 5.9700000e+00 0.0000000e+00 
6.9933333e+00 5.9900000e+00 0.0000000e+00 
6.9933333e+00 6.0100000e+00 0.0000000e+00 
6.9933333e+00 6.0300000e+00 0.0000000e+00 
7.0200000e+00 5.9700000e+00 0.0000000e+00 
7.0200000e+00 5.9900000e+00 0.0000000e+00 
[...]
POINT_DATA 604
FIELD FieldData 2
DISPLACEMENT 3 604  float
0.0000000e+00 0.0000000e+00 0.0000000e+00 
0.0000000e+00 0.0000000e+00 0.0000000e+00 
9.5983616e-05 5.8035966e-05 0.0000000e+00 
3.0430308e-05 3.7694198e-05 0.0000000e+00 
0.0000000e+00 0.0000000e+00 0.0000000e+00 
-3.0733304e-05 3.7546540e-05 0.0000000e+00 
1.9338388e-04 1.8678882e-04 0.0000000e+00 
6.4110209e-05 1.6965532e-04 0.0000000e+00 
0.0000000e+00 0.0000000e+00 0.0000000e+00 
-9.6365888e-05 5.7632582e-05 0.0000000e+00 
-6.5253145e-05 1.6916752e-04 0.0000000e+00 
2.8898854e-04 4.0472123e-04 0.0000000e+00 
-1.9473950e-04 1.8538822e-04 0.0000000e+00 
9.5113796e-05 3.8693925e-04 0.0000000e+00 
-9.8203425e-05 3.8594081e-04 0.0000000e+00 
-2.9241445e-04 4.0177630e-04 0.0000000e+00 
3.8223742e-04 7.0788720e-04 0.0000000e+00 
1.2503852e-04 6.8968833e-04 0.0000000e+00 
-1.3173414e-04 6.8797935e-04 0.0000000e+00 
-3.8936689e-04 7.0280131e-04 0.0000000e+00 
4.7293897e-04 1.0952435e-03 0.0000000e+00 
1.5336426e-04 1.0764005e-03 0.0000000e+00 
-1.6582103e-04 1.0737940e-03 0.0000000e+00 
-4.8592337e-04 1.0874601e-03 0.0000000e+00 
5.6083844e-04 1.5654305e-03 0.0000000e+00 
1.7987937e-04 1.5457718e-03 0.0000000e+00 
-2.0073437e-04 1.5420920e-03 0.0000000e+00 
-5.8231095e-04 1.5544213e-03 0.0000000e+00 
6.4570450e-04 2.1171152e-03 0.0000000e+00 
2.0435080e-04 2.0964742e-03 0.0000000e+00 
-2.3669859e-04 2.0915544e-03 0.0000000e+00 
-6.7875472e-04 2.1023800e-03 0.0000000e+00 
7.2731674e-04 2.7489588e-03 0.0000000e+00 
2.2656101e-04 2.7271786e-03 0.0000000e+00 
-2.7392910e-04 2.7208608e-03 0.0000000e+00 
-7.7546767e-04 2.7300240e-03 0.0000000e+00 
8.0546696e-04 3.4596198e-03 0.0000000e+00 
2.4630426e-04 3.4365520e-03 0.0000000e+00 
-3.1262931e-04 3.4286875e-03 0.0000000e+00 
-8.7265029e-04 3.4360391e-03 0.0000000e+00 
8.7995891e-04 4.2477534e-03 0.0000000e+00 
2.6338665e-04 4.2232585e-03 0.0000000e+00 
-3.5299074e-04 4.2137070e-03 0.0000000e+00 
-9.7049243e-04 4.2191061e-03 0.0000000e+00 
9.5060842e-04 5.1120121e-03 0.0000000e+00 
2.7762602e-04 5.0859592e-03 0.0000000e+00 
-3.9519361e-04 5.0745893e-03 0.0000000e+00 
-1.0691717e-03 5.0779044e-03 0.0000000e+00 
1.0172428e-03 6.0510459e-03 0.0000000e+00 
2.8885177e-04 6.0233126e-03 0.0000000e+00 
-4.3940655e-04 6.0100012e-03 0.0000000e+00 
-1.1688554e-03 6.0111084e-03 0.0000000e+00 
1.0797013e-03 7.0635028e-03 0.0000000e+00 
2.9690471e-04 7.0339748e-03 0.0000000e+00 
-4.8578731e-04 7.0186076e-03 0.0000000e+00 
-1.2696993e-03 7.0173926e-03 0.0000000e+00 
1.1378347e-03 8.1480288e-03 0.0000000e+00 
3.0163690e-04 8.1166002e-03 0.0000000e+00 
-5.3448246e-04 8.0990706e-03 0.0000000e+00 
-1.3718492e-03 8.0954261e-03 0.0000000e+00 
1.1915050e-03 9.3032689e-03 0.0000000e+00 
3.0291142e-04 9.2698416e-03 0.0000000e+00 
-5.8562801e-04 9.2500517e-03 0.0000000e+00 
-1.4754399e-03 9.2438799e-03 0.0000000e+00 
1.2405856e-03 1.0527867e-02 0.0000000e+00 
3.0060223e-04 1.0492351e-02 0.0000000e+00 
-6.3934971e-04 1.0470210e-02 0.0000000e+00 
-1.5805963e-03 1.0461421e-02 0.0000000e+00 
1.2849613e-03 1.1820466e-02 0.0000000e+00 
2.9459409e-04 1.1782779e-02 0.0000000e+00 
-6.9576252e-04 1.1758204e-02 0.0000000e+00 
-1.6874341e-03 1.1746714e-02 0.0000000e+00 
1.3245276e-03 1.3179712e-02 0.0000000e+00 
2.8478217e-04 1.3139778e-02 0.0000000e+00 
-7.5497180e-04 1.3112695e-02 0.0000000e+00 
-1.7960588e-03 1.3098430e-02 0.0000000e+00 
1.3591906e-03 1.4604250e-02 0.0000000e+00 
2.7107182e-04 1.4562001e-02 0.0000000e+00 
-8.1707295e-04 1.4532341e-02 0.0000000e+00 
-1.9065667e-03 1.4515234e-02 0.0000000e+00 
1.3888666e-03 1.6092726e-02 0.0000000e+00 
2.5337832e-04 1.6048102e-02 0.0000000e+00 
-8.8215183e-04 1.6015806e-02 0.0000000e+00 
-2.0190449e-03 1.5995796e-02 0.0000000e+00 
1.4134821e-03 1.7643791e-02 0.0000000e+00 
2.3162667e-04 1.7596738e-02 0.0000000e+00 
-9.5028487e-04 1.7561752e-02 0.0000000e+00 
-2.1335711e-03 1.7538786e-02 0.0000000e+00 
1.4329734e-03 1.9256096e-02 0.0000000e+00 
2.0575131e-04 1.9206567e-02 0.0000000e+00 
-1.0215394e-03 1.9168844e-02 0.0000000e+00 
-2.2502148e-03 1.9142877e-02 0.0000000e+00 
1.4472858e-03 2.0928295e-02 0.0000000e+00 
1.7569584e-04 2.0876249e-02 0.0000000e+00 
-1.0959738e-03 2.0835750e-02 0.0000000e+00 
-2.3690361e-03 2.0806742e-02 0.0000000e+00 
1.4563745e-03 2.2659045e-02 0.0000000e+00 
1.4141274e-04 2.2604450e-02 0.0000000e+00 
-1.1736380e-03 2.2561141e-02 0.0000000e+00 
-2.4900874e-03 2.2529060e-02 0.0000000e+00 
1.4602026e-03 2.4447009e-02 0.0000000e+00 
1.0286321e-04 2.4389836e-02 0.0000000e+00 
-1.2545732e-03 2.4343690e-02 0.0000000e+00 
-2.6134127e-03 2.4308509e-02 0.0000000e+00 
1.4587428e-03 2.6290851e-02 0.0000000e+00 
6.0016797e-05 2.6231079e-02 0.0000000e+00 
-1.3388127e-03 2.6182075e-02 0.0000000e+00 
-2.7390480e-03 2.6143775e-02 0.0000000e+00 
1.4519756e-03 2.8189241e-02 0.0000000e+00 
1.2851287e-05 2.8126853e-02 0.0000000e+00 
-1.4263817e-03 2.8074977e-02 0.0000000e+00 
-2.8670214e-03 2.8033543e-02 0.0000000e+00 
1.4398900e-03 3.0140852e-02 0.0000000e+00 
-3.8647624e-05 3.0075839e-02 0.0000000e+00 
-1.5172976e-03 3.0021081e-02 0.0000000e+00 
-2.9973538e-03 2.9976505e-02 0.0000000e+00 
1.4224826e-03 3.2144362e-02 0.0000000e+00 
-9.4486577e-05 3.2076720e-02 0.0000000e+00 
-1.6115705e-03 3.2019077e-02 0.0000000e+00 
-3.1300585e-03 3.1971356e-02 0.0000000e+00 
1.3997577e-03 3.4198454e-02 0.0000000e+00 
-1.5466482e-04 3.4128184e-02 0.0000000e+00 
-1.7092031e-03 3.4067657e-02 0.0000000e+00 
-3.2651420e-03 3.4016795e-02 0.0000000e+00 
1.3717268e-03 3.6301817e-02 0.0000000e+00 
-2.1917444e-04 3.6228925e-02 0.0000000e+00 
-1.8101914e-03 3.6165522e-02 0.0000000e+00 
-3.4026035e-03 3.6111527e-02 0.0000000e+00 
1.3384086e-03 3.8453144e-02 0.0000000e+00 
-2.8800051e-04 3.8377641e-02 0.0000000e+00 
-1.9145240e-03 3.8311374e-02 0.0000000e+00 
-3.5424363e-03 3.8254258e-02 0.0000000e+00 
1.2998289e-03 4.0651135e-02 0.0000000e+00 
-3.6112146e-04 4.0573037e-02 0.0000000e+00 
-2.0221837e-03 4.0503923e-02 0.0000000e+00 
-3.6846268e-03 4.0443705e-02 0.0000000e+00 
1.2560197e-03 4.2894495e-02 0.0000000e+00 
-4.3850933e-04 4.2813822e-02 0.0000000e+00 
-2.1331466e-03 4.2741882e-02 0.0000000e+00 
-3.8291555e-03 4.2678585e-02 0.0000000e+00 
1.2070193e-03 4.5181933e-02 0.0000000e+00 
-5.2012987e-04 4.5098711e-02 0.0000000e+00 
-2.2473827e-03 4.5023972e-02 0.0000000e+00 
-3.9759970e-03 4.4957623e-02 0.0000000e+00 
1.1528726e-03 4.7512168e-02 0.0000000e+00 
-6.0594295e-04 4.7426426e-02 0.0000000e+00 
-2.3648565e-03 4.7348918e-02 0.0000000e+00 
-4.1251199e-03 4.7279549e-02 0.0000000e+00 
1.0936299e-03 4.9883922e-02 0.0000000e+00 
-6.9590265e-04 4.9795694e-02 0.0000000e+00 
-2.4855265e-03 4.9715452e-02 0.0000000e+00 
-4.2764876e-03 4.9643100e-02 0.0000000e+00 
1.0293473e-03 5.2295926e-02 0.0000000e+00 
-7.8995761e-04 5.2205249e-02 0.0000000e+00 
-2.6093463e-03 5.2122312e-02 0.0000000e+00 
-4.4300582e-03 5.2047015e-02 0.0000000e+00 
9.6008650e-04 5.4746916e-02 0.0000000e+00 
-8.8805122e-04 5.4653831e-02 0.0000000e+00 
-2.7362642e-03 5.4568241e-02 0.0000000e+00 
-4.5857850e-03 5.4490044e-02 0.0000000e+00 
8.8591400e-04 5.7235635e-02 0.0000000e+00 
-9.9012181e-04 5.7140187e-02 0.0000000e+00 
-2.8662236e-03 5.7051990e-02 0.0000000e+00 
-4.7436172e-03 5.6970940e-02 0.0000000e+00 
8.0690167e-04 5.9760835e-02 0.0000000e+00 
-1.0961029e-03 5.9663071e-02 0.0000000e+00 
-2.9991636e-03 5.9572317e-02 0.0000000e+00 
-4.9034989e-03 5.9488466e-02 0.0000000e+00 
7.2312625e-04 6.2321273e-02 0.0000000e+00 
-1.2059235e-03 6.2221245e-02 0.0000000e+00 
-3.1350187e-03 6.2127986e-02 0.0000000e+00 
-5.0653705e-03 6.2041388e-02 0.0000000e+00 
6.3466888e-04 6.4915715e-02 0.0000000e+00 
-1.3195081e-03 6.4813479e-02 0.0000000e+00 
-3.2737194e-03 6.4717771e-02 0.0000000e+00 
-5.2291681e-03 6.4628483e-02 0.0000000e+00 
5.4161523e-04 6.7542938e-02 0.0000000e+00 
-1.4367772e-03 6.7438549e-02 0.0000000e+00 
-3.4151923e-03 6.7340451e-02 0.0000000e+00 
-5.3948248e-03 6.7248533e-02 0.0000000e+00 
4.4405494e-04 7.0201722e-02 0.0000000e+00 
-1.5576475e-03 7.0095241e-02 0.0000000e+00 
-3.5593604e-03 6.9994815e-02 0.0000000e+00 
-5.5622701e-03 6.9900331e-02 0.0000000e+00 
3.4208209e-04 7.2890862e-02 0.0000000e+00 
-1.6820317e-03 7.2782350e-02 0.0000000e+00 
-3.7061438e-03 7.2679659e-02 0.0000000e+00 
-5.7314304e-03 7.2582676e-02 0.0000000e+00 
2.3579473e-04 7.5609157e-02 0.0000000e+00 
-1.8098394e-03 7.5498680e-02 0.0000000e+00 
-3.8554590e-03 7.5393790e-02 0.0000000e+00 
-5.9022302e-03 7.5294374e-02 0.0000000e+00 
1.2529432e-04 7.8355422e-02 0.0000000e+00 
-1.9409765e-03 7.8243045e-02 0.0000000e+00 
-4.0072202e-03 7.8136025e-02 0.0000000e+00 
-6.0745918e-03 7.8034248e-02 0.0000000e+00 
1.0685989e-05 8.1128479e-02 0.0000000e+00 
-2.0753466e-03 8.1014270e-02 0.0000000e+00 
-4.1613389e-03 8.0905190e-02 0.0000000e+00 
-6.2484348e-03 8.0801124e-02 0.0000000e+00 
-1.0792246e-04 8.3927165e-02 0.0000000e+00 
-2.2128503e-03 8.3811193e-02 0.0000000e+00 
-4.3177248e-03 8.3700125e-02 0.0000000e+00 
-6.4236777e-03 8.3593844e-02 0.0000000e+00 
-2.3042002e-04 8.6750325e-02 0.0000000e+00 
-2.3533859e-03 8.6632663e-02 0.0000000e+00 
-4.4762852e-03 8.6519679e-02 0.0000000e+00 
-6.6002371e-03 8.6411260e-02 0.0000000e+00 
-3.5669366e-04 8.9596822e-02 0.0000000e+00 
-2.4968496e-03 8.9477540e-02 0.0000000e+00 
-4.6369261e-03 8.9362716e-02 0.0000000e+00 
-6.7780290e-03 8.9252236e-02 0.0000000e+00 
-4.8662719e-04 9.2465528e-02 0.0000000e+00 
-2.6431359e-03 9.2344700e-02 0.0000000e+00 
-4.7995518e-03 9.2228112e-02 0.0000000e+00 
-6.9569673e-03 9.2115648e-02 0.0000000e+00 
-6.2010298e-04 9.5355331e-02 0.0000000e+00 
-2.7921371e-03 9.5233031e-02 0.0000000e+00 
-4.9640659e-03 9.5114756e-02 0.0000000e+00 
-7.1369667e-03 9.5000390e-02 0.0000000e+00 
-7.5700078e-04 9.8265134e-02 0.0000000e+00 
-2.9437448e-03 9.8141437e-02 0.0000000e+00 
-5.1303707e-03 9.8021551e-02 0.0000000e+00 
-7.3179402e-03 9.7905362e-02 0.0000000e+00 
-8.9719897e-04 1.0119386e-01 0.0000000e+00 
-3.0978489e-03 1.0106884e-01 0.0000000e+00 
-5.2983684e-03 1.0094742e-01 0.0000000e+00 
-7.4998023e-03 1.0082949e-01 0.0000000e+00 
-1.0405744e-03 1.0414043e-01 0.0000000e+00 
-3.2543389e-03 1.0401416e-01 0.0000000e+00 
-5.4679608e-03 1.0389129e-01 0.0000000e+00 
-7.6824680e-03 1.0377170e-01 0.0000000e+00 
-1.1870029e-03 1.0710381e-01 0.0000000e+00 
-3.4131036e-03 1.0697637e-01 0.0000000e+00 
-5.6390500e-03 1.0685212e-01 0.0000000e+00 
-7.8658523e-03 1.0673096e-01 0.0000000e+00 
-1.3363594e-03 1.1008297e-01 0.0000000e+00 
-3.5740316e-03 1.0995443e-01 0.0000000e+00 
-5.8115381e-03 1.0982889e-01 0.0000000e+00 
-8.0498706e-03 1.0970622e-01 0.0000000e+00 
-1.4885185e-03 1.1307690e-01 0.0000000e+00 
-3.7370113e-03 1.1294733e-01 0.0000000e+00 
-5.9853276e-03 1.1282057e-01 0.0000000e+00 
-8.2344399e-03 1.1269649e-01 0.0000000e+00 
-1.6433539e-03 1.1608460e-01 0.0000000e+00 
-3.9019309e-03 1.1595408e-01 0.0000000e+00 
-6.1603219e-03 1.1582618e-01 0.0000000e+00 
-8.4194781e-03 1.1570077e-01 0.0000000e+00 
-1.8007384e-03 1.1910510e-01 0.0000000e+00 
-4.0686796e-03 1.1897371e-01 0.0000000e+00 
-6.3364251e-03 1.1884474e-01 0.0000000e+00 
-8.6049051e-03 1.1871808e-01 0.0000000e+00 
-1.9605455e-03 1.2213746e-01 0.0000000e+00 
-4.2371466e-03 1.2200526e-01 0.0000000e+00 
-6.5135434e-03 1.2187530e-01 0.0000000e+00 
-8.7906436e-03 1.2174748e-01 0.0000000e+00 
-2.1226485e-03 1.2518075e-01 0.0000000e+00 
-4.4072224e-03 1.2504782e-01 0.0000000e+00 
-6.6915841e-03 1.2491694e-01 0.0000000e+00 
-8.9766179e-03 1.2478802e-01 0.0000000e+00 
-2.2869216e-03 1.2823406e-01 0.0000000e+00 
-4.5787986e-03 1.2810047e-01 0.0000000e+00 
-6.8704564e-03 1.2796875e-01 0.0000000e+00 
-9.1627554e-03 1.2783882e-01 0.0000000e+00 
-2.4532394e-03 1.3129652e-01 0.0000000e+00 
-4.7517682e-03 1.3116233e-01 0.0000000e+00 
-7.0500714e-03 1.3102985e-01 0.0000000e+00 
-9.3489844e-03 1.3089898e-01 0.0000000e+00 
-2.6214781e-03 1.3436728e-01 0.0000000e+00 
-4.9260258e-03 1.3423255e-01 0.0000000e+00 
-7.2303424e-03 1.3409937e-01 0.0000000e+00 
-9.5352380e-03 1.3396765e-01 0.0000000e+00 
-2.7915143e-03 1.3744550e-01 0.0000000e+00 
-5.1014677e-03 1.3731030e-01 0.0000000e+00 
-7.4111853e-03 1.3717650e-01 0.0000000e+00 
-9.7214503e-03 1.3704399e-01 0.0000000e+00 
-2.9632265e-03 1.4053038e-01 0.0000000e+00 
-5.2779924e-03 1.4039478e-01 0.0000000e+00 
-7.5925184e-03 1.4026041e-01 0.0000000e+00 
-9.9075607e-03 1.4012720e-01 0.0000000e+00 
-3.1364949e-03 1.4362115e-01 0.0000000e+00 
-5.4555005e-03 1.4348520e-01 0.0000000e+00 
-7.7742633e-03 1.4335034e-01 0.0000000e+00 
-1.0093511e-02 1.4321649e-01 0.0000000e+00 
-3.3112018e-03 1.4671706e-01 0.0000000e+00 
-5.6338956e-03 1.4658083e-01 0.0000000e+00 
-7.9563441e-03 1.4644554e-01 0.0000000e+00 
-1.0279248e-02 1.4631111e-01 0.0000000e+00 
-3.4872319e-03 1.4981740e-01 0.0000000e+00 
-5.8130835e-03 1.4968093e-01 0.0000000e+00 
-8.1386885e-03 1.4954527e-01 0.0000000e+00 
-1.0464718e-02 1.4941034e-01 0.0000000e+00 
-3.6644723e-03 1.5292147e-01 0.0000000e+00 
-5.9929732e-03 1.5278483e-01 0.0000000e+00 
-8.3212267e-03 1.5264886e-01 0.0000000e+00 
-1.0649875e-02 1.5251349e-01 0.0000000e+00 
-3.8428127e-03 1.5602862e-01 0.0000000e+00 
-6.1734762e-03 1.5589185e-01 0.0000000e+00 
-8.5038928e-03 1.5575563e-01 0.0000000e+00 
-1.0834675e-02 1.5561988e-01 0.0000000e+00 
-4.0221453e-03 1.5913821e-01 0.0000000e+00 
-6.3545075e-03 1.5900137e-01 0.0000000e+00 
-8.6866236e-03 1.5886494e-01 0.0000000e+00 
-1.1019077e-02 1.5872888e-01 0.0000000e+00 
-4.2023662e-03 1.6224966e-01 0.0000000e+00 
-6.5359849e-03 1.6211278e-01 0.0000000e+00 
-8.8693594e-03 1.6197621e-01 0.0000000e+00 
-1.1203043e-02 1.6183988e-01 0.0000000e+00 
-4.3833740e-03 1.6536238e-01 0.0000000e+00 
-6.7178301e-03 1.6522551e-01 0.0000000e+00 
-9.0520446e-03 1.6508884e-01 0.0000000e+00 
-1.1386540e-02 1.6495231e-01 0.0000000e+00 
-4.5650708e-03 1.6847584e-01 0.0000000e+00 
-6.8999679e-03 1.6833902e-01 0.0000000e+00 
-9.2346265e-03 1.6820230e-01 0.0000000e+00 
-1.1569540e-02 1.6806562e-01 0.0000000e+00 
-4.7473623e-03 1.7158953e-01 0.0000000e+00 
-7.0823266e-03 1.7145280e-01 0.0000000e+00 
-9.4170565e-03 1.7131607e-01 0.0000000e+00 
-1.1752015e-02 1.7117929e-01 0.0000000e+00 
-4.9301577e-03 1.7470297e-01 0.0000000e+00 
-7.2648383e-03 1.7456636e-01 0.0000000e+00 
-9.5992888e-03 1.7442967e-01 0.0000000e+00 
-1.1933943e-02 1.7429283e-01 0.0000000e+00 
-5.1133702e-03 1.7781572e-01 0.0000000e+00 
-7.4474385e-03 1.7767927e-01 0.0000000e+00 
-9.7812818e-03 1.7754264e-01 0.0000000e+00 
-1.2115304e-02 1.7740579e-01 0.0000000e+00 
-5.2969166e-03 1.8092736e-01 0.0000000e+00 
-7.6300664e-03 1.8079109e-01 0.0000000e+00 
-9.9629970e-03 1.8065457e-01 0.0000000e+00 
-1.2296083e-02 1.8051775e-01 0.0000000e+00 
-5.4807175e-03 1.8403749e-01 0.0000000e+00 
-7.8126650e-03 1.8390143e-01 0.0000000e+00 
-1.0144399e-02 1.8376505e-01 0.0000000e+00 
-1.2476266e-02 1.8362831e-01 0.0000000e+00 
-5.6646976e-03 1.8714576e-01 0.0000000e+00 
-7.9951807e-03 1.8700994e-01 0.0000000e+00 
-1.0325457e-02 1.8687373e-01 0.0000000e+00 
-1.2655845e-02 1.8673710e-01 0.0000000e+00 
-5.8487852e-03 1.9025184e-01 0.0000000e+00 
-8.1775635e-03 1.9011628e-01 0.0000000e+00 
-1.0506143e-02 1.8998027e-01 0.0000000e+00 
-1.2834811e-02 1.8984378e-01 0.0000000e+00 
-6.0329126e-03 1.9335543e-01 0.0000000e+00 
-8.3597673e-03 1.9322016e-01 0.0000000e+00 
-1.0686430e-02 1.9308437e-01 0.0000000e+00 
-1.3013162e-02 1.9294804e-01 0.0000000e+00 
-6.2170161e-03 1.9645626e-01 0.0000000e+00 
-8.5417492e-03 1.9632128e-01 0.0000000e+00 
-1.0866299e-02 1.9618574e-01 0.0000000e+00 
-1.3190898e-02 1.9604961e-01 0.0000000e+00 
-6.4010361e-03 1.9955408e-01 0.0000000e+00 
-8.7234703e-03 1.9941941e-01 0.0000000e+00 
-1.1045729e-02 1.9928414e-01 0.0000000e+00 
-1.3368019e-02 1.9914823e-01 0.0000000e+00 
-6.5849166e-03 2.0264866e-01 0.0000000e+00 
-8.9048950e-03 2.0251433e-01 0.0000000e+00 
-1.1224707e-02 2.0237934e-01 0.0000000e+00 
-1.3544532e-02 2.0224368e-01 0.0000000e+00 
-6.7686059e-03 2.0573984e-01 0.0000000e+00 
-9.0859910e-03 2.0560583e-01 0.0000000e+00 
-1.1403218e-02 2.0547115e-01 0.0000000e+00 
-1.3720442e-02 2.0533576e-01 0.0000000e+00 
-6.9520567e-03 2.0882743e-01 0.0000000e+00 
-9.2667295e-03 2.0869377e-01 0.0000000e+00 
-1.1581253e-02 2.0855939e-01 0.0000000e+00 
-1.3895759e-02 2.0842429e-01 0.0000000e+00 
-7.1352258e-03 2.1191129e-01 0.0000000e+00 
-9.4470854e-03 2.1177798e-01 0.0000000e+00 
-1.1758804e-02 2.1164394e-01 0.0000000e+00 
-1.4070492e-02 2.1150914e-01 0.0000000e+00 
-7.3180741e-03 2.1499131e-01 0.0000000e+00 
-9.6270368e-03 2.1485836e-01 0.0000000e+00 
-1.1935867e-02 2.1472465e-01 0.0000000e+00 
-1.4244653e-02 2.1459016e-01 0.0000000e+00 
-7.5005661e-03 2.1806739e-01 0.0000000e+00 
-9.8065642e-03 2.1793479e-01 0.0000000e+00 
-1.2112439e-02 2.1780143e-01 0.0000000e+00 
-1.4418257e-02 2.1766727e-01 0.0000000e+00 
-7.6826699e-03 2.2113945e-01 0.0000000e+00 
-9.9856514e-03 2.2100722e-01 0.0000000e+00 
-1.2288518e-02 2.2087420e-01 0.0000000e+00 
-1.4591318e-02 2.2074038e-01 0.0000000e+00 
-7.8643567e-03 2.2420744e-01 0.0000000e+00 
-1.0164285e-02 2.2407557e-01 0.0000000e+00 
-1.2464107e-02 2.2394290e-01 0.0000000e+00 
-1.4763852e-02 2.2380943e-01 0.0000000e+00 
-8.0456015e-03 2.2727133e-01 0.0000000e+00 
-1.0342454e-02 2.2713982e-01 0.0000000e+00 
-1.2639208e-02 2.2700750e-01 0.0000000e+00 
-1.4935876e-02 2.2687438e-01 0.0000000e+00 
-8.2263822e-03 2.3033109e-01 0.0000000e+00 
-1.0520149e-02 2.3019993e-01 0.0000000e+00 
-1.2813828e-02 2.3006797e-01 0.0000000e+00 
-1.5107411e-02 2.2993521e-01 0.0000000e+00 
-8.4066796e-03 2.3338672e-01 0.0000000e+00 
-1.0697366e-02 2.3325592e-01 0.0000000e+00 
-1.2987972e-02 2.3312432e-01 0.0000000e+00 
-1.5278475e-02 2.3299191e-01 0.0000000e+00 
-8.5864783e-03 2.3643825e-01 0.0000000e+00 
-1.0874100e-02 2.3630780e-01 0.0000000e+00 
-1.3161649e-02 2.3617655e-01 0.0000000e+00 
-1.5449089e-02 2.3604450e-01 0.0000000e+00 
-8.7657651e-03 2.3948571e-01 0.0000000e+00 
-1.1050349e-02 2.3935560e-01 0.0000000e+00 
-1.3334868e-02 2.3922469e-01 0.0000000e+00 
-1.5619273e-02 2.3909300e-01 0.0000000e+00 
-8.9445299e-03 2.4252914e-01 0.0000000e+00 
-1.1226114e-02 2.4239936e-01 0.0000000e+00 
-1.3507642e-02 2.4226879e-01 0.0000000e+00 
-1.5789050e-02 2.4213746e-01 0.0000000e+00 
-9.1227653e-03 2.4556860e-01 0.0000000e+00 
-1.1401398e-02 2.4543914e-01 0.0000000e+00 
-1.3679982e-02 2.4530891e-01 0.0000000e+00 
-1.5958442e-02 2.4517793e-01 0.0000000e+00 
-9.3004662e-03 2.4860416e-01 0.0000000e+00 
-1.1576205e-02 2.4847502e-01 0.0000000e+00 
-1.3851902e-02 2.4834512e-01 0.0000000e+00 
-1.6127472e-02 2.4821449e-01 0.0000000e+00 
-9.4776302e-03 2.5163592e-01 0.0000000e+00 
-1.1750540e-02 2.5150708e-01 0.0000000e+00 
-1.4023416e-02 2.5137751e-01 0.0000000e+00 
-1.6296161e-02 2.5124721e-01 0.0000000e+00 
-9.6542575e-03 2.5466396e-01 0.0000000e+00 
-1.1924411e-02 2.5453541e-01 0.0000000e+00 
-1.4194538e-02 2.5440615e-01 0.0000000e+00 
-1.6464532e-02 2.5427619e-01 0.0000000e+00 
-9.8303509e-03 2.5768839e-01 0.0000000e+00 
-1.2097828e-02 2.5756013e-01 0.0000000e+00 
-1.4365285e-02 2.5743117e-01 0.0000000e+00 
-1.6632608e-02 2.5730153e-01 0.0000000e+00 
-1.0005916e-02 2.6070932e-01 0.0000000e+00 
-1.2270801e-02 2.6058133e-01 0.0000000e+00 
-1.4535672e-02 2.6045267e-01 0.0000000e+00 
-1.6800408e-02 2.6032334e-01 0.0000000e+00 
-1.0180959e-02 2.6372686e-01 0.0000000e+00 
-1.2443342e-02 2.6359914e-01 0.0000000e+00 
-1.4705715e-02 2.6347076e-01 0.0000000e+00 
-1.6967955e-02 2.6334174e-01 0.0000000e+00 
-1.0355488e-02 2.6674115e-01 0.0000000e+00 
-1.2615462e-02 2.6661368e-01 0.0000000e+00 
-1.4875431e-02 2.6648557e-01 0.0000000e+00 
-1.7135268e-02 2.6635685e-01 0.0000000e+00 
-1.0529514e-02 2.6975231e-01 0.0000000e+00 
-1.2787175e-02 2.6962507e-01 0.0000000e+00 
-1.5044837e-02 2.6949723e-01 0.0000000e+00 
-1.7302367e-02 2.6936880e-01 0.0000000e+00 
-1.0703047e-02 2.7276047e-01 0.0000000e+00 
-1.2958496e-02 2.7263346e-01 0.0000000e+00 
-1.5213950e-02 2.7250586e-01 0.0000000e+00 
-1.7469273e-02 2.7237771e-01 0.0000000e+00 
-1.0876100e-02 2.7576577e-01 0.0000000e+00 
-1.3129438e-02 2.7563897e-01 0.0000000e+00 
-1.5382785e-02 2.7551161e-01 0.0000000e+00 