# vtk DataFile Version 4.0
vtk output
ASCII
DATASET UNSTRUCTURED_GRID
POINTS 604 float
5.5000000e+00 5.9700000e+00 0.0000000e+00 
5.5000000e+00 5.9900000e+00 0.0000000e+00 
5.5266667e+00 5.9700000e+00 0.0000000e+00 
5.5266667e+00 5.9900000e+00 0.0000000e+00 
5.5000000e+00 6.0100000e+00 0.0000000e+00 
5.5266667e+00 6.0100000e+00 0.0000000e+00 
5.5533333e+00 5.9700000e+00 0.0000000e+00 
5.5533333e+00 5.9900000e+00 0.0000000e+00 
5.5000000e+00 6.0300000e+00 0.0000000e+00 
5.5266667e+00 6.0300000e+00 0.0000000e+00 
5.5533333e+00 6.0100000e+00 0.0000000e+00 
5.5800000e+00 5.9700000e+00 0.0000000e+00 
5.5533333e+00 6.0300000e+00 0.0000000e+00 
5.5800000e+00 5.9900000e+00 0.0000000e+00 
5.5800000e+00 6.0100000e+00 0.0000000e+00 
5.5800000e+00 6.0300000e+00 0.0000000e+00 
5.6066667e+00 5.9700000e+00 0.0000000e+00 
5.6066667e+00 5.9900000e+00 0.0000000e+00 
5.6066667e+00 6.0100000e+00 0.0000000e+00 
5.6066667e+00 6.0300000e+00 0.0000000e+00 
5.6333333e+00 5.9700000e+00 0.0000000e+00 
5.6333333e+00 5.9900000e+00 0.0000000e+00 
5.6333333e+00 6.0100000e+00 0.0000000e+00 
5.6333333e+00 6.0300000e+00 0.0000000e+00 
5.6600000e+00 5.9700000e+00 0.0000000e+00 
5.6600000e+00 5.9900000e+00 0.0000000e+00 
5.6600000e+00 6.0100000e+00 0.0000000e+00 
5.6600000e+00 6.0300000e+00 0.0000000e+00 
5.6866667e+00 5.9700000e+00 0.0000000e+00 
5.6866667e+00 5.9900000e+00 0.0000000e+00 
5.6866667e+00 6.0100000e+00 0.0000000e+00 
5.6866667e+00 6.0300000e+00 0.0000000e+00 
5.7133333e+00 5.9700000e+00 0.0000000e+00 
5.7133333e+00 5.9900000e+00 0.0000000e+00 
5.7133333e+00 6.0100000e+00 0.0000000e+00 
5.7133333e+00 6.0300000e+00 0.0000000e+00 
5.7400000e+00 5.9700000e+00 0.0000000e+00 
5.7400000e+00 5.9900000e+00 0.0000000e+00 
5.7400000e+00 6.0100000e+00 0.0000000e+00 
5.7400000e+00 6.0300000e+00 0.0000000e+00 
5.7666667e+00 5.9700000e+00 0.0000000e+00 
5.7666667e+00 5.9900000e+00 0.0000000e+00 
5.7666667e+00 6.0100000e+00 0.0000000e+00 
5.7666667e+00 6.0300000e+00 0.0000000e+00 
5.7933333e+00 5.9700000e+00 0.0000000e+00 
5.7933333e+00 5.9900000e+00 0.0000000e+00 
5.7933333e+00 6.0100000e+00 0.0000000e+00 
5.7933333e+00 6.0300000e+00 0.0000000e+00 
5.8200000e+00 5.9700000e+00 0.0000000e+00 
5.8200000e+00 5.9900000e+00 0.0000000e+00 
5.8200000e+00 6.0100000e+00 0.0000000e+00 
5.8200000e+00 6.0300000e+00 0.0000000e+00 
5.8466667e+00 5.9700000e+00 0.0000000e+00 
5.8466667e+00 5.9900000e+00 0.0000000e+00 
5.8466667e+00 6.0100000e+00 0.0000000e+00 
5.8466667e+00 6.0300000e+00 0.0000000e+00 
5.8733333e+00 5.9700000e+00 0.0000000e+00 
5.8733333e+00 5.9900000e+00 0.0000000e+00 
5.8733333e+00 6.0100000e+00 0.0000000e+00 
5.8733333e+00 6.0300000e+00 0.0000000e+00 
5.9000000e+00 5.9700000e+00 0.0000000e+00 
5.9000000e+00 5.9900000e+00 0.0000000e+00 
5.9000000e+00 6.0100000e+00 0.0000000e+00 
5.9000000e+00 6.0300000e+00 0.0000000e+00 
5.9266667e+00 5.9700000e+00 0.0000000e+00 
5.9266667e+00 5.9900000e+00 0.0000000e+00 
5.9266667e+00 6.0100000e+00 0.0000000e+00 
5.9266667e+00 6.0300000e+00 0.0000000e+00 
5.9533333e+00 5.9700000e+00 0.0000000e+00 
5.9533333e+00 5.9900000e+00 0.0000000e+00 
5.9533333e+00 6.0100000e+00 0.0000000e+00 
5.9533333e+00 6.0300000e+00 0.0000000e+00 
5.9800000e+00 5.9700000e+00 0.0000000e+00 
5.9800000e+00 5.9900000e+00 0.0000000e+00 
5.9800000e+00 6.0100000e+00 0.0000000e+00 
5.9800000e+00 6.0300000e+00 0.0000000e+00 
6.0066667e+00 5.9700000e+00 0.0000000e+00 
6.0066667e+00 5.9900000e+00 0.0000000e+00 
6.0066667e+00 6.0100000e+00 0.0000000e+00 
6.0066667e+00 6.0300000e+00 0.0000000e+00 
6.0333333e+00 5.9700000e+00 0.0000000e+00 
6.0333333e+00 5.9900000e+00 0.0000000e+00 
6.0333333e+00 6.0100000e+00 0.0000000e+00 
6.0333333e+00 6.0300000e+00 0.0000000e+00 
6.0600000e+00 5.9700000e+00 0.0000000e+00 
6.0600000e+00 5.9900000e+00 0.0000000e+00 
6.0600000e+00 6.0100000e+00 0.0000000e+00 
6.0600000e+00 6.0300000e+00 0.0000000e+00 
6.0866667e+00 5.9700000e+00 0.0000000e+00 
6.0866667e+00 5.9900000e+00 0.0000000e+00 
6.0866667e+00 6.0100000e+00 0.0000000e+00 
6.0866667e+00 6.0300000e+00 0.0000000e+00 
6.1133333e+00 5.9700000e+00 0.0000000e+00 
6.1133333e+00 5.9900000e+00 0.0000000e+00 
6.1133333e+00 6.0100000e+00 0.0000000e+00 
6.1133333e+00 6.0300000e+00 0.0000000e+00 
6.1400000e+00 5.9700000e+00 0.0000000e+00 
6.1400000e+00 5.9900000e+00 0.0000000e+00 
6.1400000e+00 6.0100000e+00 0.0000000e+00 
6.1400000e+00 6.0300000e+00 0.0000000e+00 
6.1666667e+00 5.9700000e+00 0.0000000e+00 
6.1666667e+00 5.9900000e+00 0.0000000e+00 
6.1666667e+00 6.0100000e+00 0.0000000e+00 
6.1666667e+00 6.0300000e+00 0.0000000e+00 
6.1933333e+00 5.9700000e+00 0.0000000e+00 
6.1933333e+00 5.9900000e+00 0.0000000e+00 
6.1933333e+00 6.0100000e+00 0.0000000e+00 
6.1933333e+00 6.0300000e+00 0.0000000e+00 
6.2200000e+00 5.9700000e+00 0.0000000e+00 
6.2200000e+00 5.9900000e+00 0.0000000e+00 
6.2200000e+00 6.0100000e+00 0.0000000e+00 
6.2200000e+00 6.0300000e+00 0.0000000e+00 
6.2466667e+00 5.9700000e+00 0.0000000e+00 
6.2466667e+00 5.9900000e+00 0.0000000e+00 
6.2466667e+00 6.0100000e+00 0.0000000e+00 
6.2466667e+00 6.0300000e+00 0.0000000e+00 
6.2733333e+00 5.9700000e+00 0.0000000e+00 
6.2733333e+00 5.9900000e+00 0.0000000e+00 
6.2733333e+00 6.0100000e+00 0.0000000e+00 
6.2733333e+00 6.0300000e+00 0.0000000e+00 
6.3000000e+00 5.9700000e+00 0.0000000e+00 
6.3000000e+00 5.9900000e+00 0.0000000e+00 
6.3000000e+00 6.0100000e+00 0.0000000e+00 
6.3000000e+00 6.0300000e+00 0.0000000e+00 
6.3266667e+00 5.9700000e+00 0.0000000e+00 
6.3266667e+00 5.9900000e+00 0.0000000e+00 
6.3266667e+00 6.0100000e+00 0.0000000e+00 
6.3266667e+00 6.0300000e+00 0.0000000e+00 
6.3533333e+00 5.9700000e+00 0.0000000e+00 
6.3533333e+00 5.9900000e+00 0.0000000e+00 
6.3533333e+00 6.0100000e+00 0.0000000e+00 
6.3533333e+00 6.0300000e+00 0.0000000e+00 
6.3800000e+00 5.9700000e+00 0.0000000e+00 
6.3800000e+00 5.9900000e+00 0.0000000e+00 
6.3800000e+00 6.0100000e+00 0.0000000e+00 
6.3800000e+00 6.0300000e+00 0.0000000e+00 
6.4066667e+00 5.9700000e+00 0.0000000e+00 
6.4066667e+00 5.9900000e+00 0.0000000e+00 
6.4066667e+00 6.0100000e+00 0.0000000e+00 
6.4066667e+00 6.0300000e+00 0.0000000e+00 
6.4333333e+00 5.9700000e+00 0.0000000e+00 
6.4333333e+00 5.9900000e+00 0.0000000e+00 
6.4333333e+00 6.0100000e+00 0.0000000e+00 
6.4333333e+00 6.0300000e+00 0.0000000e+00 
6.4600000e+00 5.9700000e+00 0.0000000e+00 
6.4600000e+00 5.9900000e+00 0.0000000e+00 
6.4600000e+00 6.0100000e+00 0.0000000e+00 
6.4600000e+00 6.0300000e+00 0.0000000e+00 
6.4866667e+00 5.9700000e+00 0.0000000e+00 
6.4866667e+00 5.9900000e+00 0.0000000e+00 
6.4866667e+00 6.0100000e+00 0.0000000e+00 
6.4866667e+00 6.0300000e+00 0.0000000e+00 
6.5133333e+00 5.9700000e+00 0.0000000e+00 
6.5133333e+00 5.9900000e+00 0.0000000e+00 
6.5133333e+00 6.0100000e+00 0.0000000e+00 
6.5133333e+00 6.0300000e+00 0.0000000e+00 
6.5400000e+00 5.9700000e+00 0.0000000e+00 
6.5400000e+00 5.9900000e+00 0.0000000e+00 
6.5400000e+00 6.0100000e+00 0.0000000e+00 
6.5400000e+00 6.0300000e+00 0.0000000e+00 
6.5666667e+00 5.9700000e+00 0.0000000e+00 
6.5666667e+00 5.9900000e+00 0.0000000e+00 
6.5666667e+00 6.0100000e+00 0.0000000e+00 
6.5666667e+00 6.0300000e+00 0.0000000e+00 
6.5933333e+00 5.9700000e+00 0.0000000e+00 
6.5933333e+00 5.9900000e+00 0.0000000e+00 
6.5933333e+00 6.0100000e+00 0.0000000e+00 
6.5933333e+00 6.0300000e+00 0.0000000e+00 
6.6200000e+00 5.9700000e+00 0.0000000e+00 
6.6200000e+00 5.9900000e+00 0.0000000e+00 
6.6200000e+00 6.0100000e+00 0.0000000e+00 
6.6200000e+00 6.0300000e+00 0.0000000e+00 
6.6466667e+00 5.9700000e+00 0.0000000e+00 
6.6466667e+00 5.9900000e+00 0.0000000e+00 
6.6466667e+00 6.0100000e+00 0.0000000e+00 
6.6466667e+00 6.0300000e+00 0.0000000e+00 
6.6733333e+00 5.9700000e+00 0.0000000e+00 
6.6733333e+00 5.9900000e+00 0.0000000e+00 
6.6733333e+00 6.0100000e+00 0.0000000e+00 
6.6733333e+00 6.0300000e+00 0.0000000e+00 
6.7000000e+00 5.9700000e+00 0.0000000e+00 
6.7000000e+00 5.9900000e+00 0.0000000e+00 
6.7000000e+00 6.0100000e+00 0.0000000e+00 
6.7000000e+00 6.0300000e+00 0.0000000e+00 
6.7266667e+00 5.9700000e+00 0.0000000e+00 
6.7266667e+00 5.9900000e+00 0.0000000e+00 
6.7266667e+00 6.0100000e+00 0.0000000e+00 
6.7266667e+00 6.0300000e+00 0.0000000e+00 
6.7533333e+00 5.9700000e+00 0.0000000e+00 
6.7533333e+00 5.9900000e+00 0.0000000e+00 
6.7533333e+00 6.0100000e+00 0.0000000e+00 
6.7533333e+00 6.0300000e+00 0.0000000e+00 
6.7800000e+00 5.9700000e+00 0.0000000e+00 
6.7800000e+00 5.9900000e+00 0.0000000e+00 
6.7800000e+00 6.0100000e+00 0.0000000e+00 
6.7800000e+00 6.0300000e+00 0.0000000e+00 
6.8066667e+00 5.9700000e+00 0.0000000e+00 
6.8066667e+00 5.9900000e+00 0.0000000e+00 
6.8066667e+00 6.0100000e+00 0.0000000e+00 
6.8066667e+00 6.0300000e+00 0.0000000e+00 
6.8333333e+00 5.9700000e+00 0.0000000e+00 
6.8333333e+00 5.9900000e+00 0.0000000e+00 
6.8333333e+00 6.0100000e+00 0.0000000e+00 
6.8333333e+00 6.0300000e+00 0.0000000e+00 
6.8600000e+00 5.9700000e+00 0.0000000e+00 
6.8600000e+00 5.9900000e+00 0.0000000e+00 
6.8600000e+00 6.0100000e+00 0.0000000e+00 
6.8600000e+00 6.0300000e+00 0.0000000e+00 
6.8866667e+00 5.9700000e+00 0.0000000e+00 
6.8866667e+00 5.9900000e+00 0.0000000e+00 
6.8866667e+00 6.0100000e+00 0.0000000e+00 
6.8866667e+00 6.0300000e+00 0.0000000e+00 
6.9133333e+00 5.9700000e+00 0.0000000e+00 
6.9133333e+00 5.9900000e+00 0.0000000e+00 
6.9133333e+00 6.0100000e+00 0.0000000e+00 
6.9133333e+00 6.0300000e+00 0.0000000e+00 
6.9400000e+00 5.9700000e+00 0.0000000e+00 
6.9400000e+00 5.9900000e+00 0.0000000e+00 
6.9400000e+00 6.0100000e+00 0.0000000e+00 
6.9400000e+00 6.0300000e+00 0.0000000e+00 
6.9666667e+00 5.9700000e+00 0.0000000e+00 
6.9666667e+00 5.9900000e+00 0.0000000e+00 
6.9666667e+00 6.0100000e+00 0.0000000e+00 
6.9666667e+00 6.0300000e+00 0.0000000e+00 
6.9933333e+00 5.9700000e+00 0.0000000e+00 
6.9933333e+00 5.9900000e+00 0.0000000e+00 
6.9933333e+00 6.0100000e+00 0.0000000e+00 
6.9933333e+00 6.0300000e+00 0.0000000e+00 
7.0200000e+00 5.9700000e+00 0.0000000e+00 
7.0200000e+00 5.9900000e+00 0.0000000e+00 
[...]
POINT_DATA 604
FIELD FieldData 2
DISPLACEMENT 3 604  float
0.0000000e+00 0.0000000e+00 0.0000000e+00 
0.0000000e+00 0.0000000e+00 0.0000000e+00 
-1.9657344e-04 -1.1654429e-04 0.0000000e+00 
-6.3152342e-05 -7.5913971e-05 0.0000000e+00 
0.0000000e+00 0.0000000e+00 0.0000000e+00 
6.1187244e-05 -7.6474161e-05 0.0000000e+00 
-3.9807012e-04 -3.7494367e-04 0.0000000e+00 
-1.3463143e-04 -3.4282489e-04 0.0000000e+00 
0.0000000e+00 0.0000000e+00 0.0000000e+00 
1.9424751e-04 -1.1804416e-04 0.0000000e+00 
1.2843523e-04 -3.4478310e-04 0.0000000e+00 
-5.9953501e-04 -8.1312901e-04 0.0000000e+00 
3.9099112e-04 -3.8056445e-04 0.0000000e+00 
-2.0415807e-04 -7.8284274e-04 0.0000000e+00 
1.8915896e-04 -7.8692147e-04 0.0000000e+00 
5.8314492e-04 -8.2515064e-04 0.0000000e+00 
-8.0149556e-04 -1.4231295e-03 0.0000000e+00 
-2.7669476e-04 -1.3963760e-03 0.0000000e+00 
2.4601737e-04 -1.4034051e-03 0.0000000e+00 
7.6901821e-04 -1.4440391e-03 0.0000000e+00 
-1.0051839e-03 -2.2031597e-03 0.0000000e+00 
-3.5273058e-04 -2.1806242e-03 0.0000000e+00 
2.9742330e-04 -2.1913873e-03 0.0000000e+00 
9.4768114e-04 -2.2352888e-03 0.0000000e+00 
-1.2115966e-03 -3.1507641e-03 0.0000000e+00 
-4.3334267e-04 -3.1331969e-03 0.0000000e+00 
3.4242831e-04 -3.1484351e-03 0.0000000e+00 
1.1181068e-03 -3.1963405e-03 0.0000000e+00 
-1.4217081e-03 -4.2635543e-03 0.0000000e+00 
-5.1949385e-04 -4.2516612e-03 0.0000000e+00 
3.8006137e-04 -4.2720827e-03 0.0000000e+00 
1.2793378e-03 -4.3247016e-03 0.0000000e+00 
-1.6364476e-03 -5.5391396e-03 0.0000000e+00 
-6.1210895e-04 -5.5335943e-03 0.0000000e+00 
4.0940353e-04 -5.5598742e-03 0.0000000e+00 
1.4304594e-03 -5.6178827e-03 0.0000000e+00 
-1.8567014e-03 -6.9751365e-03 0.0000000e+00 
-7.1206839e-04 -6.9765797e-03 0.0000000e+00 
4.2957942e-04 -7.0093605e-03 0.0000000e+00 
1.5706013e-03 -7.0734022e-03 0.0000000e+00 
-2.0833122e-03 -8.5691671e-03 0.0000000e+00 
-8.2020994e-04 -8.5782076e-03 0.0000000e+00 
4.3975703e-04 -8.6180999e-03 0.0000000e+00 
1.6989367e-03 -8.6887867e-03 0.0000000e+00 
-2.3170828e-03 -1.0318861e-02 0.0000000e+00 
-9.3732915e-04 -1.0336076e-02 0.0000000e+00 
4.3914643e-04 -1.0383659e-02 0.0000000e+00 
1.8146818e-03 -1.0461571e-02 0.0000000e+00 
-2.5587729e-03 -1.2221853e-02 0.0000000e+00 
-1.0641808e-03 -1.2247790e-02 0.0000000e+00 
4.2699932e-04 -1.2303612e-02 0.0000000e+00 
1.9170937e-03 -1.2389301e-02 0.0000000e+00 
-2.8091048e-03 -1.4275788e-02 0.0000000e+00 
-1.2014793e-03 -1.4310963e-02 0.0000000e+00 
4.0260779e-04 -1.4375544e-02 0.0000000e+00 
2.0054714e-03 -1.4469529e-02 0.0000000e+00 
-3.0687605e-03 -1.6478318e-02 0.0000000e+00 
-1.3499001e-03 -1.6523218e-02 0.0000000e+00 
3.6530379e-04 -1.6597047e-02 0.0000000e+00 
2.0791537e-03 -1.6699819e-02 0.0000000e+00 
-3.3383856e-03 -1.8827102e-02 0.0000000e+00 
-1.5100801e-03 -1.8882187e-02 0.0000000e+00 
3.1445788e-04 -1.8965724e-02 0.0000000e+00 
2.1375188e-03 -1.9077747e-02 0.0000000e+00 
-3.6185872e-03 -2.1319812e-02 0.0000000e+00 
-1.6826187e-03 -2.1385512e-02 0.0000000e+00 
2.4947855e-04 -2.1479191e-02 0.0000000e+00 
2.1799829e-03 -2.1600898e-02 0.0000000e+00 
-3.9099363e-03 -2.3954127e-02 0.0000000e+00 
-1.8680789e-03 -2.4030845e-02 0.0000000e+00 
1.6981127e-04 -2.4135071e-02 0.0000000e+00 
2.2059993e-03 -2.4266872e-02 0.0000000e+00 
-4.2129697e-03 -2.6727737e-02 0.0000000e+00 
-2.0669877e-03 -2.6815850e-02 0.0000000e+00 
7.4937607e-05 -2.6931003e-02 0.0000000e+00 
2.2150586e-03 -2.7073278e-02 0.0000000e+00 
-4.5281883e-03 -2.9638344e-02 0.0000000e+00 
-2.2798375e-03 -2.9738203e-02 0.0000000e+00 
-3.5625632e-05 -2.9864635e-02 0.0000000e+00 
2.2066862e-03 -3.0017739e-02 0.0000000e+00 
-4.8560603e-03 -3.2683661e-02 0.0000000e+00 
-2.5070869e-03 -3.2795589e-02 0.0000000e+00 
-1.6232717e-04 -3.2933629e-02 0.0000000e+00 
2.1804427e-03 -3.3097893e-02 0.0000000e+00 
-5.1970232e-03 -3.5861412e-02 0.0000000e+00 
-2.7491613e-03 -3.5985710e-02 0.0000000e+00 
-3.0558237e-04 -3.6135661e-02 0.0000000e+00 
2.1359237e-03 -3.6311391e-02 0.0000000e+00 
-5.5514803e-03 -3.9169335e-02 0.0000000e+00 
-3.0064543e-03 -3.9306281e-02 0.0000000e+00 
-4.6577416e-04 -3.9468422e-02 0.0000000e+00 
2.0727561e-03 -3.9655900e-02 0.0000000e+00 
-5.9198036e-03 -4.2605182e-02 0.0000000e+00 
-3.2793274e-03 -4.2755028e-02 0.0000000e+00 
-6.4325381e-04 -4.2929615e-02 0.0000000e+00 
1.9905988e-03 -4.3129099e-02 0.0000000e+00 
-6.3023358e-03 -4.6166716e-02 0.0000000e+00 
-3.5681116e-03 -4.6329693e-02 0.0000000e+00 
-8.3834205e-04 -4.6516960e-02 0.0000000e+00 
1.8891420e-03 -4.6728686e-02 0.0000000e+00 
-6.6993861e-03 -4.9851715e-02 0.0000000e+00 
-3.8731079e-03 -5.0028030e-02 0.0000000e+00 
-1.0513293e-03 -5.0228189e-02 0.0000000e+00 
1.7681041e-03 -5.0452370e-02 0.0000000e+00 
-7.1112387e-03 -5.3657969e-02 0.0000000e+00 
-4.1945883e-03 -5.3847809e-02 0.0000000e+00 
-1.2824768e-03 -5.4061047e-02 0.0000000e+00 
1.6272354e-03 -5.4297877e-02 0.0000000e+00 
-7.5381488e-03 -5.7583280e-02 0.0000000e+00 
-4.5327967e-03 -5.7786811e-02 0.0000000e+00 
-1.5320173e-03 -5.8013299e-02 0.0000000e+00 
1.4663140e-03 -5.8262947e-02 0.0000000e+00 
-7.9803454e-03 -6.1625468e-02 0.0000000e+00 
-4.8879500e-03 -6.1842835e-02 0.0000000e+00 
-1.8001560e-03 -6.2082719e-02 0.0000000e+00 
1.2851463e-03 -6.2345339e-02 0.0000000e+00 
-8.4380302e-03 -6.5782365e-02 0.0000000e+00 
-5.2602385e-03 -6.6013692e-02 0.0000000e+00 
-2.0870714e-03 -6.6267104e-02 0.0000000e+00 
1.0835655e-03 -6.6542825e-02 0.0000000e+00 
-8.9113806e-03 -7.0051819e-02 0.0000000e+00 
-5.6498267e-03 -7.0297213e-02 0.0000000e+00 
-2.3929159e-03 -7.0564260e-02 0.0000000e+00 
8.6143085e-04 -7.0853197e-02 0.0000000e+00 
-9.4005481e-03 -7.4431692e-02 0.0000000e+00 
-6.0568543e-03 -7.4691242e-02 0.0000000e+00 
-2.7178171e-03 -7.4972016e-02 0.0000000e+00 
6.1862694e-04 -7.5274262e-02 0.0000000e+00 
-9.9056607e-03 -7.8919864e-02 0.0000000e+00 
-6.4814368e-03 -7.9193638e-02 0.0000000e+00 
-3.0618779e-03 -7.9488213e-02 0.0000000e+00 
3.5506289e-04 -7.9803845e-02 0.0000000e+00 
-1.0426824e-02 -8.3514228e-02 0.0000000e+00 
-6.9236663e-03 -8.3802280e-02 0.0000000e+00 
-3.4251781e-03 -8.4110712e-02 0.0000000e+00 
7.0671806e-05 -8.4439789e-02 0.0000000e+00 
-1.0964120e-02 -8.8212695e-02 0.0000000e+00 
-7.3836126e-03 -8.8515061e-02 0.0000000e+00 
-3.8077744e-03 -8.8837388e-02 0.0000000e+00 
-2.3459044e-04 -8.9179953e-02 0.0000000e+00 
-1.1517610e-02 -9.3013193e-02 0.0000000e+00 
-7.8613240e-03 -9.3329891e-02 0.0000000e+00 
-4.2097013e-03 -9.3666138e-02 0.0000000e+00 
-5.6074565e-04 -9.4022217e-02 0.0000000e+00 
-1.2087338e-02 -9.7913664e-02 0.0000000e+00 
-8.3568278e-03 -9.8244699e-02 0.0000000e+00 
-4.6309725e-03 -9.8594874e-02 0.0000000e+00 
-9.0779248e-04 -9.8964478e-02 0.0000000e+00 
-1.2673324e-02 -1.0291207e-01 0.0000000e+00 
-8.8701316e-03 -1.0325743e-01 0.0000000e+00 
-5.0715816e-03 -1.0362153e-01 0.0000000e+00 
-1.2757112e-03 -1.0400466e-01 0.0000000e+00 
-1.3275569e-02 -1.0800640e-01 0.0000000e+00 
-9.4012228e-03 -1.0836606e-01 0.0000000e+00 
-5.5315023e-03 -1.0874406e-01 0.0000000e+00 
-1.6644623e-03 -1.0914069e-01 0.0000000e+00 
-1.3894057e-02 -1.1319464e-01 0.0000000e+00 
-9.9500696e-03 -1.1356856e-01 0.0000000e+00 
-6.0106900e-03 -1.1396042e-01 0.0000000e+00 
-2.0739871e-03 -1.1437053e-01 0.0000000e+00 
-1.4528748e-02 -1.1847481e-01 0.0000000e+00 
-1.0516622e-02 -1.1886294e-01 0.0000000e+00 
-6.5090812e-03 -1.1926862e-01 0.0000000e+00 
-2.5042109e-03 -1.1969215e-01 0.0000000e+00 
-1.5179589e-02 -1.2384494e-01 0.0000000e+00 
-1.1100813e-02 -1.2424722e-01 0.0000000e+00 
-7.0265948e-03 -1.2466664e-01 0.0000000e+00 
-2.9550382e-03 -1.2510354e-01 0.0000000e+00 
-1.5846509e-02 -1.2930308e-01 0.0000000e+00 
-1.1702557e-02 -1.2971942e-01 0.0000000e+00 
-7.5631328e-03 -1.3015252e-01 0.0000000e+00 
-3.4263572e-03 -1.3060272e-01 0.0000000e+00 
-1.6529425e-02 -1.3484729e-01 0.0000000e+00 
-1.2321756e-02 -1.3527761e-01 0.0000000e+00 
-8.1185808e-03 -1.3572430e-01 0.0000000e+00 
-3.9180394e-03 -1.3618771e-01 0.0000000e+00 
-1.7228235e-02 -1.4047566e-01 0.0000000e+00 
-1.2958293e-02 -1.4091985e-01 0.0000000e+00 
-8.6928090e-03 -1.4138004e-01 0.0000000e+00 
-4.4299407e-03 -1.4185657e-01 0.0000000e+00 
-1.7942823e-02 -1.4618629e-01 0.0000000e+00 
-1.3612038e-02 -1.4664425e-01 0.0000000e+00 
-9.2856731e-03 -1.4711782e-01 0.0000000e+00 
-4.9619022e-03 -1.4760737e-01 0.0000000e+00 
-1.8673061e-02 -1.5197731e-01 0.0000000e+00 
-1.4282849e-02 -1.5244890e-01 0.0000000e+00 
-9.8970142e-03 -1.5293575e-01 0.0000000e+00 
-5.5137508e-03 -1.5343820e-01 0.0000000e+00 
-1.9418806e-02 -1.5784685e-01 0.0000000e+00 
-1.4970566e-02 -1.5833195e-01 0.0000000e+00 
-1.0526660e-02 -1.5883194e-01 0.0000000e+00 
-6.0852996e-03 -1.5934717e-01 0.0000000e+00 
-2.0179904e-02 -1.6379308e-01 0.0000000e+00 
-1.5675022e-02 -1.6429155e-01 0.0000000e+00 
-1.1174427e-02 -1.6480454e-01 0.0000000e+00 
-6.6763487e-03 -1.6533241e-01 0.0000000e+00 
-2.0956188e-02 -1.6981417e-01 0.0000000e+00 
-1.6396033e-02 -1.7032586e-01 0.0000000e+00 
-1.1840116e-02 -1.7085171e-01 0.0000000e+00 
-7.2866862e-03 -1.7139208e-01 0.0000000e+00 
-2.1747480e-02 -1.7590833e-01 0.0000000e+00 
-1.7133407e-02 -1.7643307e-01 0.0000000e+00 
-1.2523521e-02 -1.7697163e-01 0.0000000e+00 
-7.9160884e-03 -1.7752435e-01 0.0000000e+00 
-2.2553593e-02 -1.8207377e-01 0.0000000e+00 
-1.7886941e-02 -1.8261141e-01 0.0000000e+00 
-1.3224420e-02 -1.8316250e-01 0.0000000e+00 
-8.5643204e-03 -1.8372742e-01 0.0000000e+00 
-2.3374328e-02 -1.8830874e-01 0.0000000e+00 
-1.8656419e-02 -1.8885909e-01 0.0000000e+00 
-1.3942586e-02 -1.8942255e-01 0.0000000e+00 
-9.2311374e-03 -1.8999950e-01 0.0000000e+00 
-2.4209482e-02 -1.9461149e-01 0.0000000e+00 
-1.9441621e-02 -1.9517437e-01 0.0000000e+00 
-1.4677778e-02 -1.9575003e-01 0.0000000e+00 
-9.9162824e-03 -1.9633884e-01 0.0000000e+00 
-2.5058839e-02 -2.0098030e-01 0.0000000e+00 
-2.0242315e-02 -2.0155554e-01 0.0000000e+00 
-1.5429749e-02 -2.0214321e-01 0.0000000e+00 
-1.0619492e-02 -2.0274369e-01 0.0000000e+00 
-2.5922176e-02 -2.0741349e-01 0.0000000e+00 
-2.1058260e-02 -2.0800088e-01 0.0000000e+00 
-1.6198244e-02 -2.0860037e-01 0.0000000e+00 
-1.1340496e-02 -2.0921235e-01 0.0000000e+00 
-2.6799261e-02 -2.1390936e-01 0.0000000e+00 
-2.1889210e-02 -2.1450871e-01 0.0000000e+00 
-1.6982998e-02 -2.1511983e-01 0.0000000e+00 
-1.2079013e-02 -2.1574311e-01 0.0000000e+00 
-2.7689850e-02 -2.2046627e-01 0.0000000e+00 
-2.2734908e-02 -2.2107737e-01 0.0000000e+00 
-1.7783742e-02 -2.2169993e-01 0.0000000e+00 
-1.2834759e-02 -2.2233431e-01 0.0000000e+00 
-2.8593698e-02 -2.2708259e-01 0.0000000e+00 
-2.3595092e-02 -2.2770523e-01 0.0000000e+00 
-1.8600196e-02 -2.2833901e-01 0.0000000e+00 
-1.3607439e-02 -2.2898430e-01 0.0000000e+00 
-2.9510554e-02 -2.3375668e-01 0.0000000e+00 
-2.4469493e-02 -2.3439066e-01 0.0000000e+00 
-1.9432076e-02 -2.3503545e-01 0.0000000e+00 
-1.4396753e-02 -2.3569144e-01 0.0000000e+00 
-3.0440161e-02 -2.4048697e-01 0.0000000e+00 
-2.5357838e-02 -2.4113205e-01 0.0000000e+00 
-2.0279092e-02 -2.4178765e-01 0.0000000e+00 
-1.5202394e-02 -2.4245413e-01 0.0000000e+00 
-3.1382257e-02 -2.4727187e-01 0.0000000e+00 
-2.6259848e-02 -2.4792784e-01 0.0000000e+00 
-2.1140949e-02 -2.4859402e-01 0.0000000e+00 
-1.6024050e-02 -2.4927078e-01 0.0000000e+00 
-3.2336576e-02 -2.5410983e-01 0.0000000e+00 
-2.7175241e-02 -2.5477647e-01 0.0000000e+00 
-2.2017346e-02 -2.5545302e-01 0.0000000e+00 
-1.6861404e-02 -2.5613984e-01 0.0000000e+00 
-3.3302847e-02 -2.6099933e-01 0.0000000e+00 
-2.8103728e-02 -2.6167641e-01 0.0000000e+00 
-2.2907979e-02 -2.6236310e-01 0.0000000e+00 
-1.7714135e-02 -2.6305977e-01 0.0000000e+00 
-3.4280799e-02 -2.6793885e-01 0.0000000e+00 
-2.9045020e-02 -2.6862615e-01 0.0000000e+00 
-2.3812542e-02 -2.6932275e-01 0.0000000e+00 
-1.8581919e-02 -2.7002904e-01 0.0000000e+00 
-3.5270153e-02 -2.7492692e-01 0.0000000e+00 
-2.9998824e-02 -2.7562419e-01 0.0000000e+00 
-2.4730723e-02 -2.7633049e-01 0.0000000e+00 
-1.9464428e-02 -2.7704618e-01 0.0000000e+00 
-3.6270639e-02 -2.8196207e-01 0.0000000e+00 
-3.0964846e-02 -2.8266908e-01 0.0000000e+00 
-2.5662209e-02 -2.8338484e-01 0.0000000e+00 
-2.0361330e-02 -2.8410971e-01 0.0000000e+00 
-3.7281976e-02 -2.8904286e-01 0.0000000e+00 
-3.1942789e-02 -2.8975939e-01 0.0000000e+00 
-2.6606686e-02 -2.9048438e-01 0.0000000e+00 
-2.1272291e-02 -2.9121820e-01 0.0000000e+00 
-3.8303884e-02 -2.9616789e-01 0.0000000e+00 
-3.2932355e-02 -2.9689369e-01 0.0000000e+00 
-2.7563838e-02 -2.9762768e-01 0.0000000e+00 
-2.2196980e-02 -2.9837023e-01 0.0000000e+00 
-3.9336081e-02 -3.0333576e-01 0.0000000e+00 
-3.3933243e-02 -3.0407059e-01 0.0000000e+00 
-2.8533348e-02 -3.0481336e-01 0.0000000e+00 
-2.3135062e-02 -3.0556440e-01 0.0000000e+00 
-4.0378278e-02 -3.1054510e-01 0.0000000e+00 
-3.4945154e-02 -3.1128874e-01 0.0000000e+00 
-2.9514899e-02 -3.1204004e-01 0.0000000e+00 
-2.4086204e-02 -3.1279936e-01 0.0000000e+00 
-4.1430194e-02 -3.1779456e-01 0.0000000e+00 
-3.5967784e-02 -3.1854677e-01 0.0000000e+00 
-3.0508171e-02 -3.1930637e-01 0.0000000e+00 
-2.5050068e-02 -3.2007373e-01 0.0000000e+00 
-4.2491544e-02 -3.2508283e-01 0.0000000e+00 
-3.7000833e-02 -3.2584336e-01 0.0000000e+00 
-3.1512845e-02 -3.2661104e-01 0.0000000e+00 
-2.6026318e-02 -3.2738622e-01 0.0000000e+00 
-4.3562048e-02 -3.3240860e-01 0.0000000e+00 
-3.8043999e-02 -3.3317722e-01 0.0000000e+00 
-3.2528603e-02 -3.3395274e-01 0.0000000e+00 
-2.7014617e-02 -3.3473551e-01 0.0000000e+00 
-4.4641423e-02 -3.3977059e-01 0.0000000e+00 
-3.9096985e-02 -3.4054707e-01 0.0000000e+00 
-3.3555126e-02 -3.4133020e-01 0.0000000e+00 
-2.8014629e-02 -3.4212033e-01 0.0000000e+00 
-4.5729391e-02 -3.4716756e-01 0.0000000e+00 
-4.0159491e-02 -3.4795165e-01 0.0000000e+00 
-3.4592098e-02 -3.4874217e-01 0.0000000e+00 
-2.9026020e-02 -3.4953943e-01 0.0000000e+00 
-4.6825672e-02 -3.5459827e-01 0.0000000e+00 
-4.1231221e-02 -3.5538975e-01 0.0000000e+00 
-3.5639205e-02 -3.5618742e-01 0.0000000e+00 
-3.0048455e-02 -3.5699160e-01 0.0000000e+00 
-4.7929992e-02 -3.6206151e-01 0.0000000e+00 
-4.2311880e-02 -3.6286015e-01 0.0000000e+00 
-3.6696133e-02 -3.6366475e-01 0.0000000e+00 
-3.1081605e-02 -3.6447562e-01 0.0000000e+00 
-4.9042078e-02 -3.6955612e-01 0.0000000e+00 
-4.3401178e-02 -3.7036169e-01 0.0000000e+00 
-3.7762572e-02 -3.7117298e-01 0.0000000e+00 
-3.2125139e-02 -3.7199033e-01 0.0000000e+00 
-5.0161659e-02 -3.7708094e-01 0.0000000e+00 
-4.4498825e-02 -3.7789320e-01 0.0000000e+00 
-3.8838215e-02 -3.7871097e-01 0.0000000e+00 
-3.3178731e-02 -3.7953457e-01 0.0000000e+00 
-5.1288469e-02 -3.8463482e-01 0.0000000e+00 
-4.5604536e-02 -3.8545356e-01 0.0000000e+00 
-3.9922756e-02 -3.8627759e-01 0.0000000e+00 
-3.4242058e-02 -3.8710723e-01 0.0000000e+00 
-5.2422245e-02 -3.9221668e-01 0.0000000e+00 
-4.6718027e-02 -3.9304167e-01 0.0000000e+00 
-4.1015894e-02 -3.9387174e-01 0.0000000e+00 
-3.5314798e-02 -3.9470721e-01 0.0000000e+00 
-5.3562727e-02 -3.9982543e-01 0.0000000e+00 
-4.7839022e-02 -4.0065645e-01 0.0000000e+00 
-4.2117331e-02 -4.0149235e-01 0.0000000e+00 
-3.6396635e-02 -4.0233344e-01 0.0000000e+00 
-5.4709666e-02 -4.0746001e-01 0.0000000e+00 
-4.8967247e-02 -4.0829685e-01 0.0000000e+00 
-4.3226775e-02 -4.0913837e-01 0.0000000e+00 
-3.7487255e-02 -4.0998486e-01 0.0000000e+00 
-5.5862811e-02 -4.1511941e-01 0.0000000e+00 
-5.0102434e-02 -4.1596184e-01 0.0000000e+00 
-4.4343937e-02 -4.1680877e-01 0.0000000e+00 
-3.8586349e-02 -4.1766048e-01 0.0000000e+00 
-5.7021918e-02 -4.2280261e-01 0.0000000e+00 
-5.1244318e-02 -4.2365044e-01 0.0000000e+00 
-4.5468532e-02 -4.2450258e-01 0.0000000e+00 
-3.9693616e-02 -4.2535930e-01 0.0000000e+00 
-5.8186746e-02 -4.3050865e-01 0.0000000e+00 
-5.2392638e-02 -4.3136167e-01 0.0000000e+00 
-4.6600283e-02 -4.3221881e-01 0.0000000e+00 
-4.0808757e-02 -4.3308035e-01 0.0000000e+00 
-5.9357053e-02 -4.3823657e-01 0.0000000e+00 
-5.3547140e-02 -4.3909458e-01 0.0000000e+00 
-4.7738915e-02 -4.3995653e-01 0.0000000e+00 
-4.1931481e-02 -4.4082269e-01 0.0000000e+00 
-6.0532607e-02 -4.4598545e-01 0.0000000e+00 
-5.4707570e-02 -4.4684824e-01 0.0000000e+00 
-4.8884158e-02 -4.4771481e-01 0.0000000e+00 
-4.3061500e-02 -4.4858540e-01 0.0000000e+00 
-6.1713183e-02 -4.5375438e-01 0.0000000e+00 
-5.5873683e-02 -4.5462176e-01 0.0000000e+00 
-5.0035747e-02 -4.5549276e-01 0.0000000e+00 
-4.4198528e-02 -4.5636761e-01 0.0000000e+00 
-6.2898559e-02 -4.6154248e-01 0.0000000e+00 
-5.7045240e-02 -4.6241427e-01 0.0000000e+00 
-5.1193424e-02 -4.6328951e-01 0.0000000e+00 
-4.5342289e-02 -4.6416843e-01 0.0000000e+00 
-6.4088522e-02 -4.6934890e-01 0.0000000e+00 
-5.8222006e-02 -4.7022492e-01 0.0000000e+00 
-5.2356934e-02 -4.7110421e-01 0.0000000e+00 
-4.6492509e-02 -4.7198703e-01 0.0000000e+00 
-6.5282861e-02 -4.7717283e-01 0.0000000e+00 
-5.9403752e-02 -4.7805288e-01 0.0000000e+00 
-5.3526030e-02 -4.7893606e-01 0.0000000e+00 
-4.7648921e-02 -4.7982260e-01 0.0000000e+00 
-6.6481374e-02 -4.8501344e-01 0.0000000e+00 
-6.0590258e-02 -4.8589736e-01 0.0000000e+00 
-5.4700472e-02 -4.8678425e-01 0.0000000e+00 
-4.8811267e-02 -4.8767435e-01 0.0000000e+00 
-6.7683862e-02 -4.9286998e-01 0.0000000e+00 
-6.1781306e-02 -4.9375758e-01 0.0000000e+00 
-5.5880023e-02 -4.9464802e-01 0.0000000e+00 
-4.9979291e-02 -4.9554152e-01 0.0000000e+00 
-6.8890134e-02 -5.0074169e-01 0.0000000e+00 
-6.2976686e-02 -5.0163281e-01 0.0000000e+00 
-5.7064455e-02 -5.0252663e-01 0.0000000e+00 
-5.1152746e-02 -5.0342337e-01 0.0000000e+00 
-7.0100011e-02 -5.0862784e-01 0.0000000e+00 
-6.4176196e-02 -5.0952232e-01 0.0000000e+00 
-5.8253547e-02 -5.1041937e-01 0.0000000e+00 
-5.2331389e-02 -5.1131920e-01 0.0000000e+00 
-7.1313311e-02 -5.1652773e-01 0.0000000e+00 
-6.5379640e-02 -5.1742541e-01 0.0000000e+00 
-5.9447082e-02 -5.1832554e-01 0.0000000e+00 
-5.3514988e-02 -5.1922831e-01 0.0000000e+00 
-7.2529864e-02 -5.2444069e-01 0.0000000e+00 
-6.6586826e-02 -5.2534143e-01 0.0000000e+00 
-6.0644852e-02 -5.2624448e-01 0.0000000e+00 
-5.4703315e-02 -5.2715004e-01 0.0000000e+00 
-7.3749503e-02 -5.3236607e-01 0.0000000e+00 
-6.7797570e-02 -5.3326971e-01 0.0000000e+00 
-6.1846656e-02 -5.3417555e-01 0.0000000e+00 
-5.5896152e-02 -5.3508377e-01 0.0000000e+00 
-7.4972057e-02 -5.4030323e-01 0.0000000e+00 
-6.9011691e-02 -5.4120964e-01 0.0000000e+00 
-6.3052296e-02 -5.4211812e-01 0.0000000e+00 
-5.7093288e-02 -5.4302886e-01 0.0000000e+00 
-7.6197371e-02 -5.4825158e-01 0.0000000e+00 
-7.0229014e-02 -5.4916061e-01 0.0000000e+00 
-6.4261583e-02 -5.5007160e-01 0.0000000e+00 
-5.8294515e-02 -5.5098474e-01 0.0000000e+00 
-7.7425294e-02 -5.5621052e-01 0.0000000e+00 
-7.1449372e-02 -5.5712203e-01 0.0000000e+00 
-6.5474332e-02 -5.5803541e-01 0.0000000e+00 
-5.9499631e-02 -5.5895081e-01 0.0000000e+00 
-7.8655679e-02 -5.6417948e-01 0.0000000e+00 
-7.2672602e-02 -5.6509335e-01 0.0000000e+00 
-6.6690363e-02 -5.6600898e-01 0.0000000e+00 
-6.0708443e-02 -5.6692653e-01 0.0000000e+00 
-7.9888389e-02 -5.7215793e-01 0.0000000e+00 
-7.3898549e-02 -5.7307403e-01 0.0000000e+00 
-6.7909506e-02 -5.7399180e-01 0.0000000e+00 
-6.1920760e-02 -5.7491138e-01 0.0000000e+00 
-8.1123287e-02 -5.8014534e-01 0.0000000e+00 
-7.5127063e-02 -5.8106356e-01 0.0000000e+00 
-6.9131594e-02 -5.8198334e-01 0.0000000e+00 
-6.3136403e-02 -5.8290484e-01 0.0000000e+00 
-8.2360246e-02 -5.8814121e-01 0.0000000e+00 
-7.6357998e-02 -5.8906143e-01 0.0000000e+00 
-7.0356468e-02 -5.8998312e-01 0.0000000e+00 
-6.4355196e-02 -5.9090642e-01 0.0000000e+00 
-8.3599142e-02 -5.9614507e-01 0.0000000e+00 
-7.7591218e-02 -5.9706717e-01 0.0000000e+00 
-7.1583973e-02 -5.9799065e-01 0.0000000e+00 
-6.5576969e-02 -5.9891567e-01 0.0000000e+00 
-8.4839857e-02 -6.0415644e-01 0.0000000e+00 
-7.8826588e-02 -6.0508032e-01 0.0000000e+00 
-7.2813964e-02 -6.0600551e-01 0.0000000e+00 
-6.6801562e-02 -6.0693213e-01 0.0000000e+00 
-8.6082277e-02 -6.1217490e-01 0.0000000e+00 
-8.0063982e-02 -6.1310046e-01 0.0000000e+00 
-7.4046297e-02 -6.1402724e-01 0.0000000e+00 
-6.8028818e-02 -6.1495537e-01 0.0000000e+00 
-8.7326293e-02 -6.2020002e-01 0.0000000e+00 
-8.1303277e-02 -6.2112715e-01 0.0000000e+00 
-7.5280836e-02 -6.2205543e-01 0.0000000e+00 
-6.9258587e-02 -6.2298498e-01 0.0000000e+00 