# vtk DataFile Version 4.0
vtk output
ASCII
DATASET UNSTRUCTURED_GRID
POINTS 604 float
5.5000000e+00 5.9700000e+00 0.0000000e+00 
5.5000000e+00 5.9900000e+00 0.0000000e+00 
5.5266667e+00 5.9700000e+00 0.0000000e+00 
5.5266667e+00 5.9900000e+00 0.0000000e+00 
5.5000000e+00 6.0100000e+00 0.0000000e+00 
5.5266667e+00 6.0100000e+00 0.0000000e+00 
5.5533333e+00 5.9700000e+00 0.0000000e+00 
5.5533333e+00 5.9900000e+00 0.0000000e+00 
5.5000000e+00 6.0300000e+00 0.0000000e+00 
5.5266667e+00 6.0300000e+00 0.0000000e+00 
5.5533333e+00 6.0100000e+00 0.0000000e+00 
5.5800000e+00 5.9700000e+00 0.0000000e+00 
5.5533333e+00 6.0300000e+00 0.0000000e+00 
5.5800000e+00 5.9900000e+00 0.0000000e+00 
5.5800000e+00 6.0100000e+00 0.0000000e+00 
5.5800000e+00 6.0300000e+00 0.0000000e+00 
5.6066667e+00 5.9700000e+00 0.0000000e+00 
5.6066667e+00 5.9900000e+00 0.0000000e+00 
5.6066667e+00 6.0100000e+00 0.0000000e+00 
5.6066667e+00 6.0300000e+00 0.0000000e+00 
5.6333333e+00 5.9700000e+00 0.0000000e+00 
5.6333333e+00 5.9900000e+00 0.0000000e+00 
5.6333333e+00 6.0100000e+00 0.0000000e+00 
5.6333333e+00 6.0300000e+00 0.0000000e+00 
5.6600000e+00 5.9700000e+00 0.0000000e+00 
5.6600000e+00 5.9900000e+00 0.0000000e+00 
5.6600000e+00 6.0100000e+00 0.0000000e+00 
5.6600000e+00 6.0300000e+00 0.0000000e+00 
5.6866667e+00 5.9700000e+00 0.0000000e+00 
5.6866667e+00 5.9900000e+00 0.0000000e+00 
5.6866667e+00 6.0100000e+00 0.0000000e+00 
5.6866667e+00 6.0300000e+00 0.0000000e+00 
5.7133333e+00 5.9700000e+00 0.0000000e+00 
5.7133333e+00 5.9900000e+00 0.0000000e+00 
5.7133333e+00 6.0100000e+00 0.0000000e+00 
5.7133333e+00 6.0300000e+00 0.0000000e+00 
5.7400000e+00 5.9700000e+00 0.0000000e+00 
5.7400000e+00 5.9900000e+00 0.0000000e+00 
5.7400000e+00 6.0100000e+00 0.0000000e+00 
5.7400000e+00 6.0300000e+00 0.0000000e+00 
5.7666667e+00 5.9700000e+00 0.0000000e+00 
5.7666667e+00 5.9900000e+00 0.0000000e+00 
5.7666667e+00 6.0100000e+00 0.0000000e+00 
5.7666667e+00 6.0300000e+00 0.0000000e+00 
5.7933333e+00 5.9700000e+00 0.0000000e+00 
5.7933333e+00 5.9900000e+00 0.0000000e+00 
5.7933333e+00 6.0100000e+00 0.0000000e+00 
5.7933333e+00 6.0300000e+00 0.0000000e+00 
5.8200000e+00 5.9700000e+00 0.0000000e+00 
5.8200000e+00 5.9900000e+00 0.0000000e+00 
5.8200000e+00 6.0100000e+00 0.0000000e+00 
5.8200000e+00 6.0300000e+00 0.0000000e+00 
5.8466667e+00 5.9700000e+00 0.0000000e+00 
5.8466667e+00 5.9900000e+00 0.0000000e+00 
5.8466667e+00 6.0100000e+00 0.0000000e+00 
5.8466667e+00 6.0300000e+00 0.0000000e+00 
5.8733333e+00 5.9700000e+00 0.0000000e+00 
5.8733333e+00 5.9900000e+00 0.0000000e+00 
5.8733333e+00 6.0100000e+00 0.0000000e+00 
5.8733333e+00 6.0300000e+00 0.0000000e+00 
5.9000000e+00 5.9700000e+00 0.0000000e+00 
5.9000000e+00 5.9900000e+00 0.0000000e+00 
5.9000000e+00 6.0100000e+00 0.0000000e+00 
5.9000000e+00 6.0300000e+00 0.0000000e+00 
5.9266667e+00 5.9700000e+00 0.0000000e+00 
5.9266667e+00 5.9900000e+00 0.0000000e+00 
5.9266667e+00 6.0100000e+00 0.0000000e+00 
5.9266667e+00 6.0300000e+00 0.0000000e+00 
5.9533333e+00 5.9700000e+00 0.0000000e+00 
5.9533333e+00 5.9900000e+00 0.0000000e+00 
5.9533333e+00 6.0100000e+00 0.0000000e+00 
5.9533333e+00 6.0300000e+00 0.0000000e+00 
5.9800000e+00 5.9700000e+00 0.0000000e+00 
5.9800000e+00 5.9900000e+00 0.0000000e+00 
5.9800000e+00 6.0100000e+00 0.0000000e+00 
5.9800000e+00 6.0300000e+00 0.0000000e+00 
6.0066667e+00 5.9700000e+00 0.0000000e+00 
6.0066667e+00 5.9900000e+00 0.0000000e+00 
6.0066667e+00 6.0100000e+00 0.0000000e+00 
6.0066667e+00 6.0300000e+00 0.0000000e+00 
6.0333333e+00 5.9700000e+00 0.0000000e+00 
6.0333333e+00 5.9900000e+00 0.0000000e+00 
6.0333333e+00 6.0100000e+00 0.0000000e+00 
6.0333333e+00 6.0300000e+00 0.0000000e+00 
6.0600000e+00 5.9700000e+00 0.0000000e+00 
6.0600000e+00 5.9900000e+00 0.0000000e+00 
6.0600000e+00 6.0100000e+00 0.0000000e+00 
6.0600000e+00 6.0300000e+00 0.0000000e+00 
6.0866667e+00 5.9700000e+00 0.0000000e+00 
6.0866667e+00 5.9900000e+00 0.0000000e+00 
6.0866667e+00 6.0100000e+00 0.0000000e+00 
6.0866667e+00 6.0300000e+00 0.0000000e+00 
6.1133333e+00 5.9700000e+00 0.0000000e+00 
6.1133333e+00 5.9900000e+00 0.0000000e+00 
6.1133333e+00 6.0100000e+00 0.0000000e+00 
6.1133333e+00 6.0300000e+00 0.0000000e+00 
6.1400000e+00 5.9700000e+00 0.0000000e+00 
6.1400000e+00 5.9900000e+00 0.0000000e+00 
6.1400000e+00 6.0100000e+00 0.0000000e+00 
6.1400000e+00 6.0300000e+00 0.0000000e+00 
6.1666667e+00 5.9700000e+00 0.0000000e+00 
6.1666667e+00 5.9900000e+00 0.0000000e+00 
6.1666667e+00 6.0100000e+00 0.0000000e+00 
6.1666667e+00 6.0300000e+00 0.0000000e+00 
6.1933333e+00 5.9700000e+00 0.0000000e+00 
6.1933333e+00 5.9900000e+00 0.0000000e+00 
6.1933333e+00 6.0100000e+00 0.0000000e+00 
6.1933333e+00 6.0300000e+00 0.0000000e+00 
6.2200000e+00 5.9700000e+00 0.0000000e+00 
6.2200000e+00 5.9900000e+00 0.0000000e+00 
6.2200000e+00 6.0100000e+00 0.0000000e+00 
6.2200000e+00 6.0300000e+00 0.0000000e+00 
6.2466667e+00 5.9700000e+00 0.0000000e+00 
6.2466667e+00 5.9900000e+00 0.0000000e+00 
6.2466667e+00 6.0100000e+00 0.0000000e+00 
6.2466667e+00 6.0300000e+00 0.0000000e+00 
6.2733333e+00 5.9700000e+00 0.0000000e+00 
6.2733333e+00 5.9900000e+00 0.0000000e+00 
6.2733333e+00 6.0100000e+00 0.0000000e+00 
6.2733333e+00 6.0300000e+00 0.0000000e+00 
6.3000000e+00 5.9700000e+00 0.0000000e+00 
6.3000000e+00 5.9900000e+00 0.0000000e+00 
6.3000000e+00 6.0100000e+00 0.0000000e+00 
6.3000000e+00 6.0300000e+00 0.0000000e+00 
6.3266667e+00 5.9700000e+00 0.0000000e+00 
6.3266667e+00 5.9900000e+00 0.0000000e+00 
6.3266667e+00 6.0100000e+00 0.0000000e+00 
6.3266667e+00 6.0300000e+00 0.0000000e+00 
6.3533333e+00 5.9700000e+00 0.0000000e+00 
6.3533333e+00 5.9900000e+00 0.0000000e+00 
6.3533333e+00 6.0100000e+00 0.0000000e+00 
6.3533333e+00 6.0300000e+00 0.0000000e+00 
6.3800000e+00 5.9700000e+00 0.0000000e+00 
6.3800000e+00 5.9900000e+00 0.0000000e+00 
6.3800000e+00 6.0100000e+00 0.0000000e+00 
6.3800000e+00 6.0300000e+00 0.0000000e+00 
6.4066667e+00 5.9700000e+00 0.0000000e+00 
6.4066667e+00 5.9900000e+00 0.0000000e+00 
6.4066667e+00 6.0100000e+00 0.0000000e+00 
6.4066667e+00 6.0300000e+00 0.0000000e+00 
6.4333333e+00 5.9700000e+00 0.0000000e+00 
6.4333333e+00 5.9900000e+00 0.0000000e+00 
6.4333333e+00 6.0100000e+00 0.0000000e+00 
6.4333333e+00 6.0300000e+00 0.0000000e+00 
6.4600000e+00 5.9700000e+00 0.0000000e+00 
6.4600000e+00 5.9900000e+00 0.0000000e+00 
6.4600000e+00 6.0100000e+00 0.0000000e+00 
6.4600000e+00 6.0300000e+00 0.0000000e+00 
6.4866667e+00 5.9700000e+00 0.0000000e+00 
6.4866667e+00 5.9900000e+00 0.0000000e+00 
6.4866667e+00 6.0100000e+00 0.0000000e+00 
6.4866667e+00 6.0300000e+00 0.0000000e+00 
6.5133333e+00 5.9700000e+00 0.0000000e+00 
6.5133333e+00 5.9900000e+00 0.0000000e+00 
6.5133333e+00 6.0100000e+00 0.0000000e+00 
6.5133333e+00 6.0300000e+00 0.0000000e+00 
6.5400000e+00 5.9700000e+00 0.0000000e+00 
6.5400000e+00 5.9900000e+00 0.0000000e+00 
6.5400000e+00 6.0100000e+00 0.0000000e+00 
6.5400000e+00 6.0300000e+00 0.0000000e+00 
6.5666667e+00 5.9700000e+00 0.0000000e+00 
6.5666667e+00 5.9900000e+00 0.0000000e+00 
6.5666667e+00 6.0100000e+00 0.0000000e+00 
6.5666667e+00 6.0300000e+00 0.0000000e+00 
6.5933333e+00 5.9700000e+00 0.0000000e+00 
6.5933333e+00 5.9900000e+00 0.0000000e+00 
6.5933333e+00 6.0100000e+00 0.0000000e+00 
6.5933333e+00 6.0300000e+00 0.0000000e+00 
6.6200000e+00 5.9700000e+00 0.0000000e+00 
6.6200000e+00 5.9900000e+00 0.0000000e+00 
6.6200000e+00 6.0100000e+00 0.0000000e+00 
6.6200000e+00 6.0300000e+00 0.0000000e+00 
6.6466667e+00 5.9700000e+00 0.0000000e+00 
6.6466667e+00 5.9900000e+00 0.0000000e+00 
6.6466667e+00 6.0100000e+00 0.0000000e+00 
6.6466667e+00 6.0300000e+00 0.0000000e+00 
6.6733333e+00 5.9700000e+00 0.0000000e+00 
6.6733333e+00 5.9900000e+00 0.0000000e+00 
6.6733333e+00 6.0100000e+00 0.0000000e+00 
6.6733333e+00 6.0300000e+00 0.0000000e+00 
6.7000000e+00 5.9700000e+00 0.0000000e+00 
6.7000000e+00 5.9900000e+00 0.0000000e+00 
6.7000000e+00 6.0100000e+00 0.0000000e+00 
6.7000000e+00 6.0300000e+00 0.0000000e+00 
6.7266667e+00 5.9700000e+00 0.0000000e+00 
6.7266667e+00 5.9900000e+00 0.0000000e+00 
6.7266667e+00 6.0100000e+00 0.0000000e+00 
6.7266667e+00 6.0300000e+00 0.0000000e+00 
6.7533333e+00 5.9700000e+00 0.0000000e+00 
6.7533333e+00 5.9900000e+00 0.0000000e+00 
6.7533333e+00 6.0100000e+00 0.0000000e+00 
6.7533333e+00 6.0300000e+00 0.0000000e+00 
6.7800000e+00 5.9700000e+00 0.0000000e+00 
6.7800000e+00 5.9900000e+00 0.0000000e+00 
6.7800000e+00 6.0100000e+00 0.0000000e+00 
6.7800000e+00 6.0300000e+00 0.0000000e+00 
6.8066667e+00 5.9700000e+00 0.0000000e+00 
6.8066667e+00 5.9900000e+00 0.0000000e+00 
6.8066667e+00 6.0100000e+00 0.0000000e+00 
6.8066667e+00 6.0300000e+00 0.0000000e+00 
6.8333333e+00 5.9700000e+00 0.0000000e+00 
6.8333333e+00 5.9900000e+00 0.0000000e+00 
6.8333333e+00 6.0100000e+00 0.0000000e+00 
6.8333333e+00 6.0300000e+00 0.0000000e+00 
6.8600000e+00 5.9700000e+00 0.0000000e+00 
6.8600000e+00 5.9900000e+00 0.0000000e+00 
6.8600000e+00 6.0100000e+00 0.0000000e+00 
6.8600000e+00 6.0300000e+00 0.0000000e+00 
6.8866667e+00 5.9700000e+00 0.0000000e+00 
6.8866667e+00 5.9900000e+00 0.0000000e+00 
6.8866667e+00 6.0100000e+00 0.0000000e+00 
6.8866667e+00 6.0300000e+00 0.0000000e+00 
6.9133333e+00 5.9700000e+00 0.0000000e+00 
6.9133333e+00 5.9900000e+00 0.0000000e+00 
6.9133333e+00 6.0100000e+00 0.0000000e+00 
6.9133333e+00 6.0300000e+00 0.0000000e+00 
6.9400000e+00 5.9700000e+00 0.0000000e+00 
6.9400000e+00 5.9900000e+00 0.0000000e+00 
6.9400000e+00 6.0100000e+00 0.0000000e+00 
6.9400000e+00 6.0300000e+00 0.0000000e+00 
6.9666667e+00 5.9700000e+00 0.0000000e+00 
6.9666667e+00 5.9900000e+00 0.0000000e+00 
6.9666667e+00 6.0100000e+00 0.0000000e+00 
6.9666667e+00 6.0300000e+00 0.0000000e+00 
6.9933333e+00 5.9700000e+00 0.0000000e+00 
6.9933333e+00 5.9900000e+00 0.0000000e+00 
6.9933333e+00 6.0100000e+00 0.0000000e+00 
6.9933333e+00 6.0300000e+00 0.0000000e+00 
7.0200000e+00 5.9700000e+00 0.0000000e+00 
7.0200000e+00 5.9900000e+00 0.0000000e+00 
[...]
POINT_DATA 604
FIELD FieldData 2
DISPLACEMENT 3 604  float
0.0000000e+00 0.0000000e+00 0.0000000e+00 
0.0000000e+00 0.0000000e+00 0.0000000e+00 
-1.3530210e-04 -8.1270180e-05 0.0000000e+00 
-4.3199724e-05 -5.3216720e-05 0.0000000e+00 
0.0000000e+00 0.0000000e+00 0.0000000e+00 
4.2360829e-05 -5.3487586e-05 0.0000000e+00 
-2.7299625e-04 -2.6031090e-04 0.0000000e+00 
-9.1762234e-05 -2.3794796e-04 0.0000000e+00 
0.0000000e+00 0.0000000e+00 0.0000000e+00 
1.3429054e-04 -8.2001284e-05 0.0000000e+00 
8.9014694e-05 -2.3887835e-04 0.0000000e+00 
-4.0950539e-04 -5.6266014e-04 0.0000000e+00 
2.6982820e-04 -2.6298765e-04 0.0000000e+00 
-1.3825274e-04 -5.4120329e-04 0.0000000e+00 
1.3144520e-04 -5.4312552e-04 0.0000000e+00 
4.0204216e-04 -5.6833562e-04 0.0000000e+00 
-5.4495797e-04 -9.8227460e-04 0.0000000e+00 
-1.8583969e-04 -9.6269861e-04 0.0000000e+00 
1.7176100e-04 -9.6599208e-04 0.0000000e+00 
5.3003927e-04 -9.9208446e-04 0.0000000e+00 
-6.7996910e-04 -1.5173520e-03 0.0000000e+00 
-2.3462061e-04 -1.4999393e-03 0.0000000e+00 
2.0912190e-04 -1.5049558e-03 0.0000000e+00 
6.5345487e-04 -1.5323423e-03 0.0000000e+00 
-8.1499917e-04 -2.1656525e-03 0.0000000e+00 
-2.8509716e-04 -2.1507320e-03 0.0000000e+00 
2.4312875e-04 -2.1577984e-03 0.0000000e+00 
7.7184958e-04 -2.1868057e-03 0.0000000e+00 
-9.5049684e-04 -2.9250002e-03 0.0000000e+00 
-3.3769587e-04 -2.9128734e-03 0.0000000e+00 
2.7336309e-04 -2.9222966e-03 0.0000000e+00 
8.8482782e-04 -2.9532359e-03 0.0000000e+00 
-1.0868831e-03 -3.7932360e-03 0.0000000e+00 
-3.9282109e-04 -3.7841852e-03 0.0000000e+00 
2.9943821e-04 -3.7962522e-03 0.0000000e+00 
9.9201909e-04 -3.8294147e-03 0.0000000e+00 
-1.2245532e-03 -4.7682228e-03 0.0000000e+00 
-4.5085076e-04 -4.7625113e-03 0.0000000e+00 
3.2099307e-04 -4.7774900e-03 0.0000000e+00 
1.0930793e-03 -4.8131479e-03 0.0000000e+00 
-1.3638772e-03 -5.8478454e-03 0.0000000e+00 
-5.1213793e-04 -5.8457179e-03 0.0000000e+00 
3.3769180e-04 -5.8638577e-03 0.0000000e+00 
1.1876893e-03 -5.9022647e-03 0.0000000e+00 
-1.5052018e-03 -7.0300104e-03 0.0000000e+00 
-5.7701132e-04 -7.0316938e-03 0.0000000e+00 
3.4922269e-04 -7.0532264e-03 0.0000000e+00 
1.2755546e-03 -7.0946184e-03 0.0000000e+00 
-1.6488490e-03 -8.3126465e-03 0.0000000e+00 
-6.4577658e-04 -8.3183505e-03 0.0000000e+00 
3.5529749e-04 -8.3434902e-03 0.0000000e+00 
1.3564038e-03 -8.3880860e-03 0.0000000e+00 
-1.7951201e-03 -9.6937041e-03 0.0000000e+00 
-7.1871676e-04 -9.7036218e-03 0.0000000e+00 
3.5565038e-04 -9.7325666e-03 0.0000000e+00 
1.4299885e-03 -9.7805685e-03 0.0000000e+00 
-1.9442941e-03 -1.1171156e-02 0.0000000e+00 
-7.9609355e-04 -1.1185465e-02 0.0000000e+00 
3.5003730e-04 -1.1218397e-02 0.0000000e+00 
1.4960818e-03 -1.1269991e-02 0.0000000e+00 
-2.0966300e-03 -1.2742999e-02 0.0000000e+00 
-8.7814773e-04 -1.2761860e-02 0.0000000e+00 
3.3823501e-04 -1.2798946e-02 0.0000000e+00 
1.5544781e-03 -1.2854304e-02 0.0000000e+00 
-2.2523663e-03 -1.4407249e-02 0.0000000e+00 
-9.6510021e-04 -1.4430810e-02 0.0000000e+00 
3.2004033e-04 -1.4472202e-02 0.0000000e+00 
1.6049916e-03 -1.4531480e-02 0.0000000e+00 
-2.4117223e-03 -1.6161949e-02 0.0000000e+00 
-1.0571526e-03 -1.6190343e-02 0.0000000e+00 
2.9526937e-04 -1.6236178e-02 0.0000000e+00 
1.6474561e-03 -1.6299519e-02 0.0000000e+00 
-2.5748997e-03 -1.8005162e-02 0.0000000e+00 
-1.1544882e-03 -1.8038508e-02 0.0000000e+00 
2.6375673e-04 -1.8088911e-02 0.0000000e+00 
1.6817240e-03 -1.8156443e-02 0.0000000e+00 
-2.7420818e-03 -1.9934975e-02 0.0000000e+00 
-1.2572726e-03 -1.9973380e-02 0.0000000e+00 
2.2535477e-04 -2.0028462e-02 0.0000000e+00 
1.7076652e-03 -2.0100300e-02 0.0000000e+00 
-2.9134352e-03 -2.1949498e-02 0.0000000e+00 
-1.3656545e-03 -2.1993055e-02 0.0000000e+00 
1.7993294e-04 -2.2052915e-02 0.0000000e+00 
1.7251673e-03 -2.2129163e-02 0.0000000e+00 
-3.0891120e-03 -2.4046865e-02 0.0000000e+00 
-1.4797663e-03 -2.4095655e-02 0.0000000e+00 
1.2737696e-04 -2.4160380e-02 0.0000000e+00 
1.7341343e-03 -2.4241130e-02 0.0000000e+00 
-3.2692473e-03 -2.6225232e-02 0.0000000e+00 
-1.5997253e-03 -2.6279327e-02 0.0000000e+00 
6.7588097e-05 -2.6348991e-02 0.0000000e+00 
1.7344855e-03 -2.6434323e-02 0.0000000e+00 
-3.4539609e-03 -2.8482780e-02 0.0000000e+00 
-1.7256332e-03 -2.8542239e-02 0.0000000e+00 
4.8252227e-07 -2.8616908e-02 0.0000000e+00 
1.7261550e-03 -2.8706891e-02 0.0000000e+00 
-3.6433595e-03 -3.0817715e-02 0.0000000e+00 
-1.8575777e-03 -3.0882587e-02 0.0000000e+00 
-7.4009450e-05 -3.0962314e-02 0.0000000e+00 
1.7090913e-03 -3.1057006e-02 0.0000000e+00 
-3.8375333e-03 -3.3228262e-02 0.0000000e+00 
-1.9956327e-03 -3.3298587e-02 0.0000000e+00 
-1.5594379e-04 -3.3383417e-02 0.0000000e+00 
1.6832556e-03 -3.3482866e-02 0.0000000e+00 
-4.0365623e-03 -3.5712673e-02 0.0000000e+00 
-2.1398591e-03 -3.5788479e-02 0.0000000e+00 
-2.4536352e-04 -3.5878446e-02 0.0000000e+00 
1.6486232e-03 -3.5982692e-02 0.0000000e+00 
-4.2405131e-03 -3.8269221e-02 0.0000000e+00 
-2.2903057e-03 -3.8350529e-02 0.0000000e+00 
-3.4229916e-04 -3.8445659e-02 0.0000000e+00 
1.6051812e-03 -3.8554732e-02 0.0000000e+00 
-4.4494413e-03 -4.0896203e-02 0.0000000e+00 
-2.4470092e-03 -4.0983026e-02 0.0000000e+00 
-4.4676953e-04 -4.1083335e-02 0.0000000e+00 
1.5529291e-03 -4.1197256e-02 0.0000000e+00 
-4.6633904e-03 -4.3591940e-02 0.0000000e+00 
-2.6099956e-03 -4.3684281e-02 0.0000000e+00 
-5.5878224e-04 -4.3789778e-02 0.0000000e+00 
1.4918771e-03 -4.3908561e-02 0.0000000e+00 
-4.8823942e-03 -4.6354777e-02 0.0000000e+00 
-2.7792799e-03 -4.6452632e-02 0.0000000e+00 
-6.7833428e-04 -4.6563318e-02 0.0000000e+00 
1.4220464e-03 -4.6686968e-02 0.0000000e+00 
-5.1064758e-03 -4.9183082e-02 0.0000000e+00 
-2.9548671e-03 -4.9286440e-02 0.0000000e+00 
-8.0541262e-04 -4.9402308e-02 0.0000000e+00 
1.3434680e-03 -4.9530823e-02 0.0000000e+00 
-5.3356485e-03 -5.2075245e-02 0.0000000e+00 
-3.1367527e-03 -5.2184087e-02 0.0000000e+00 
-9.3999463e-04 -5.2305125e-02 0.0000000e+00 
1.2561824e-03 -5.2438496e-02 0.0000000e+00 
-5.5699173e-03 -5.5029683e-02 0.0000000e+00 
-3.3249230e-03 -5.5143984e-02 0.0000000e+00 
-1.0820487e-03 -5.5270170e-02 0.0000000e+00 
1.1602392e-03 -5.5408382e-02 0.0000000e+00 
-5.8092780e-03 -5.8044832e-02 0.0000000e+00 
-3.5193562e-03 -5.8164562e-02 0.0000000e+00 
-1.2315347e-03 -5.8295871e-02 0.0000000e+00 
1.0556964e-03 -5.8438902e-02 0.0000000e+00 
-6.0537184e-03 -6.1119156e-02 0.0000000e+00 
-3.7200223e-03 -6.1244278e-02 0.0000000e+00 
-1.3884045e-03 -6.1380677e-02 0.0000000e+00 
9.4262031e-04 -6.1528500e-02 0.0000000e+00 
-6.3032213e-03 -6.4251140e-02 0.0000000e+00 
-3.9268839e-03 -6.4381610e-02 0.0000000e+00 
-1.5526023e-03 -6.4523063e-02 0.0000000e+00 
8.2108527e-04 -6.4675645e-02 0.0000000e+00 
-6.5577600e-03 -6.7439295e-02 0.0000000e+00 
-4.1398966e-03 -6.7575066e-02 0.0000000e+00 
-1.7240656e-03 -6.7721529e-02 0.0000000e+00 
6.9117189e-04 -6.7878832e-02 0.0000000e+00 
-6.8173010e-03 -7.0682153e-02 0.0000000e+00 
-4.3590093e-03 -7.0823173e-02 0.0000000e+00 
-1.9027251e-03 -7.0974599e-02 0.0000000e+00 
5.5296708e-04 -7.1136581e-02 0.0000000e+00 
-7.0818053e-03 -7.3978271e-02 0.0000000e+00 
-4.5841641e-03 -7.4124485e-02 0.0000000e+00 
-2.0885055e-03 -7.4280822e-02 0.0000000e+00 
4.0656399e-04 -7.4447434e-02 0.0000000e+00 
-7.3512248e-03 -7.7326231e-02 0.0000000e+00 
-4.8152975e-03 -7.7477576e-02 0.0000000e+00 
-2.2813259e-03 -7.7638768e-02 0.0000000e+00 
2.5206054e-04 -7.7809960e-02 0.0000000e+00 
-7.6255089e-03 -8.0724633e-02 0.0000000e+00 
-5.0523403e-03 -8.0881045e-02 0.0000000e+00 
-2.4810994e-03 -8.1047032e-02 0.0000000e+00 
8.9561072e-05 -8.1222747e-02 0.0000000e+00 
-7.9046014e-03 -8.4172103e-02 0.0000000e+00 
-5.2952186e-03 -8.4333514e-02 0.0000000e+00 
-2.6877346e-03 -8.4504232e-02 0.0000000e+00 
-8.0825269e-05 -8.4684411e-02 0.0000000e+00 
-8.1884418e-03 -8.7667290e-02 0.0000000e+00 
-5.5438539e-03 -8.7833628e-02 0.0000000e+00 
-2.9011353e-03 -8.8009010e-02 0.0000000e+00 
-2.5898460e-04 -8.8193592e-02 0.0000000e+00 
-8.4769647e-03 -9.1208867e-02 0.0000000e+00 
-5.7981634e-03 -9.1380056e-02 0.0000000e+00 
-3.1212010e-03 -9.1560032e-02 0.0000000e+00 
-4.4479904e-04 -9.1748950e-02 0.0000000e+00 
-8.7701014e-03 -9.4795527e-02 0.0000000e+00 
-6.0580604e-03 -9.4971490e-02 0.0000000e+00 
-3.3478275e-03 -9.5155988e-02 0.0000000e+00 
-6.3814678e-04 -9.5349174e-02 0.0000000e+00 
-9.0677789e-03 -9.8425988e-02 0.0000000e+00 
-6.3234547e-03 -9.8606646e-02 0.0000000e+00 
-3.5809070e-03 -9.8795589e-02 0.0000000e+00 
-8.3890269e-04 -9.8992973e-02 0.0000000e+00 
-9.3699210e-03 -1.0209899e-01 0.0000000e+00 
-6.5942526e-03 -1.0228426e-01 0.0000000e+00 
-3.8203286e-03 -1.0247757e-01 0.0000000e+00 
-1.0469386e-03 -1.0267908e-01 0.0000000e+00 
-9.6764490e-03 -1.0581330e-01 0.0000000e+00 
-6.8703578e-03 -1.0600310e-01 0.0000000e+00 
-4.0659786e-03 -1.0620070e-01 0.0000000e+00 
-1.2621233e-03 -1.0640626e-01 0.0000000e+00 
-9.9872809e-03 -1.0956770e-01 0.0000000e+00 
-7.1516712e-03 -1.0976194e-01 0.0000000e+00 
-4.3177406e-03 -1.0996375e-01 0.0000000e+00 
-1.4843233e-03 -1.1017328e-01 0.0000000e+00 
-1.0302333e-02 -1.1336101e-01 0.0000000e+00 
-7.4380914e-03 -1.1355960e-01 0.0000000e+00 
-4.5754959e-03 -1.1376553e-01 0.0000000e+00 
-1.7134028e-03 -1.1397895e-01 0.0000000e+00 
-1.0621518e-02 -1.1719204e-01 0.0000000e+00 
-7.7295151e-03 -1.1739490e-01 0.0000000e+00 
-4.8391241e-03 -1.1760487e-01 0.0000000e+00 
-1.9492242e-03 -1.1782210e-01 0.0000000e+00 
-1.0944749e-02 -1.2105966e-01 0.0000000e+00 
-8.0258372e-03 -1.2126670e-01 0.0000000e+00 
-5.1085028e-03 -1.2148062e-01 0.0000000e+00 
-2.1916481e-03 -1.2170158e-01 0.0000000e+00 
-1.1271938e-02 -1.2496275e-01 0.0000000e+00 
-8.3269515e-03 -1.2517387e-01 0.0000000e+00 
-5.3835083e-03 -1.2539165e-01 0.0000000e+00 
-2.4405328e-03 -1.2561627e-01 0.0000000e+00 
-1.1602994e-02 -1.2890020e-01 0.0000000e+00 
-8.6327505e-03 -1.2911531e-01 0.0000000e+00 
-5.6640159e-03 -1.2933687e-01 0.0000000e+00 
-2.6957368e-03 -1.2956505e-01 0.0000000e+00 
-1.1937826e-02 -1.3287094e-01 0.0000000e+00 
-8.9431257e-03 -1.3308994e-01 0.0000000e+00 
-5.9499002e-03 -1.3331520e-01 0.0000000e+00 
-2.9571179e-03 -1.3354686e-01 0.0000000e+00 
-1.2276341e-02 -1.3687391e-01 0.0000000e+00 
-9.2579670e-03 -1.3709672e-01 0.0000000e+00 
-6.2410350e-03 -1.3732558e-01 0.0000000e+00 
-3.2245332e-03 -1.3756064e-01 0.0000000e+00 
-1.2618442e-02 -1.4090807e-01 0.0000000e+00 
-9.5771641e-03 -1.4113459e-01 0.0000000e+00 
-6.5372936e-03 -1.4136697e-01 0.0000000e+00 
-3.4978407e-03 -1.4160534e-01 0.0000000e+00 
-1.2964036e-02 -1.4497242e-01 0.0000000e+00 
-9.9006058e-03 -1.4520256e-01 0.0000000e+00 
-6.8385488e-03 -1.4543836e-01 0.0000000e+00 
-3.7768967e-03 -1.4567996e-01 0.0000000e+00 
-1.3313028e-02 -1.4906596e-01 0.0000000e+00 
-1.0228181e-02 -1.4929963e-01 0.0000000e+00 
-7.1446733e-03 -1.4953876e-01 0.0000000e+00 
-4.0615576e-03 -1.4978350e-01 0.0000000e+00 
-1.3665324e-02 -1.5318772e-01 0.0000000e+00 
-1.0559779e-02 -1.5342482e-01 0.0000000e+00 
-7.4555399e-03 -1.5366720e-01 0.0000000e+00 
-4.3516798e-03 -1.5391500e-01 0.0000000e+00 
-1.4020828e-02 -1.5733676e-01 0.0000000e+00 
-1.0895289e-02 -1.5757720e-01 0.0000000e+00 
-7.7710218e-03 -1.5782273e-01 0.0000000e+00 
-4.6471204e-03 -1.5807351e-01 0.0000000e+00 
-1.4379448e-02 -1.6151215e-01 0.0000000e+00 
-1.1234601e-02 -1.6175583e-01 0.0000000e+00 
-8.0909925e-03 -1.6200443e-01 0.0000000e+00 
-4.9477371e-03 -1.6225810e-01 0.0000000e+00 
-1.4741088e-02 -1.6571297e-01 0.0000000e+00 
-1.1577605e-02 -1.6595980e-01 0.0000000e+00 
-8.4153263e-03 -1.6621139e-01 0.0000000e+00 
-5.2533881e-03 -1.6646786e-01 0.0000000e+00 
-1.5105656e-02 -1.6993835e-01 0.0000000e+00 
-1.1924192e-02 -1.7018825e-01 0.0000000e+00 
-8.7438984e-03 -1.7044272e-01 0.0000000e+00 
-5.5639329e-03 -1.7070192e-01 0.0000000e+00 
-1.5473059e-02 -1.7418742e-01 0.0000000e+00 
-1.2274253e-02 -1.7444029e-01 0.0000000e+00 
-9.0765844e-03 -1.7469757e-01 0.0000000e+00 
-5.8792315e-03 -1.7495940e-01 0.0000000e+00 
-1.5843208e-02 -1.7845934e-01 0.0000000e+00 
-1.2627683e-02 -1.7871509e-01 0.0000000e+00 
-9.4132616e-03 -1.7897509e-01 0.0000000e+00 
-6.1991443e-03 -1.7923948e-01 0.0000000e+00 
-1.6216011e-02 -1.8275329e-01 0.0000000e+00 
-1.2984374e-02 -1.8301183e-01 0.0000000e+00 
-9.7538085e-03 -1.8327447e-01 0.0000000e+00 
-6.5235344e-03 -1.8354133e-01 0.0000000e+00 
-1.6591380e-02 -1.8706847e-01 0.0000000e+00 
-1.3344222e-02 -1.8732971e-01 0.0000000e+00 
-1.0098105e-02 -1.8759490e-01 0.0000000e+00 
-6.8522667e-03 -1.8786416e-01 0.0000000e+00 
-1.6969227e-02 -1.9140408e-01 0.0000000e+00 
-1.3707124e-02 -1.9166794e-01 0.0000000e+00 
-1.0446032e-02 -1.9193560e-01 0.0000000e+00 
-7.1852074e-03 -1.9220718e-01 0.0000000e+00 
-1.7349459e-02 -1.9575939e-01 0.0000000e+00 
-1.4072977e-02 -1.9602578e-01 0.0000000e+00 
-1.0797474e-02 -1.9629582e-01 0.0000000e+00 
-7.5222259e-03 -1.9656964e-01 0.0000000e+00 
-1.7731993e-02 -2.0013363e-01 0.0000000e+00 
-1.4441679e-02 -2.0040247e-01 0.0000000e+00 
-1.1152313e-02 -2.0067482e-01 0.0000000e+00 
-7.8631917e-03 -2.0095080e-01 0.0000000e+00 
-1.8116743e-02 -2.0452609e-01 0.0000000e+00 
-1.4813131e-02 -2.0479729e-01 0.0000000e+00 
-1.1510437e-02 -2.0507187e-01 0.0000000e+00 
-8.2079761e-03 -2.0534993e-01 0.0000000e+00 
-1.8503625e-02 -2.0893606e-01 0.0000000e+00 
-1.5187235e-02 -2.0920954e-01 0.0000000e+00 
-1.1871733e-02 -2.0948627e-01 0.0000000e+00 
-8.5564524e-03 -2.0976635e-01 0.0000000e+00 
-1.8892558e-02 -2.1336285e-01 0.0000000e+00 
-1.5563894e-02 -2.1363854e-01 0.0000000e+00 
-1.2236090e-02 -2.1391734e-01 0.0000000e+00 
-8.9084961e-03 -2.1419936e-01 0.0000000e+00 
-1.9283462e-02 -2.1780581e-01 0.0000000e+00 
-1.5943016e-02 -2.1808362e-01 0.0000000e+00 
-1.2603400e-02 -2.1836441e-01 0.0000000e+00 
-9.2639845e-03 -2.1864830e-01 0.0000000e+00 
-1.9676257e-02 -2.2226428e-01 0.0000000e+00 
-1.6324506e-02 -2.2254413e-01 0.0000000e+00 
-1.2973557e-02 -2.2282685e-01 0.0000000e+00 
-9.6227975e-03 -2.2311254e-01 0.0000000e+00 
-2.0070868e-02 -2.2673763e-01 0.0000000e+00 
-1.6708275e-02 -2.2701945e-01 0.0000000e+00 
-1.3346456e-02 -2.2730402e-01 0.0000000e+00 
-9.9848173e-03 -2.2759144e-01 0.0000000e+00 
-2.0467217e-02 -2.3122525e-01 0.0000000e+00 
-1.7094233e-02 -2.3150897e-01 0.0000000e+00 
-1.3721995e-02 -2.3179532e-01 0.0000000e+00 
-1.0349928e-02 -2.3208440e-01 0.0000000e+00 
-2.0865232e-02 -2.3572655e-01 0.0000000e+00 
-1.7482293e-02 -2.3601209e-01 0.0000000e+00 
-1.4100075e-02 -2.3630015e-01 0.0000000e+00 
-1.0718017e-02 -2.3659082e-01 0.0000000e+00 
-2.1264841e-02 -2.4024096e-01 0.0000000e+00 
-1.7872371e-02 -2.4052824e-01 0.0000000e+00 
-1.4480597e-02 -2.4081794e-01 0.0000000e+00 
-1.1088974e-02 -2.4111015e-01 0.0000000e+00 
-2.1665972e-02 -2.4476790e-01 0.0000000e+00 
-1.8264384e-02 -2.4505687e-01 0.0000000e+00 
-1.4863465e-02 -2.4534814e-01 0.0000000e+00 
-1.1462689e-02 -2.4564181e-01 0.0000000e+00 
-2.2068557e-02 -2.4930684e-01 0.0000000e+00 
-1.8658250e-02 -2.4959742e-01 0.0000000e+00 
-1.5248586e-02 -2.4989020e-01 0.0000000e+00 
-1.1839056e-02 -2.5018528e-01 0.0000000e+00 
-2.2472532e-02 -2.5385725e-01 0.0000000e+00 
-1.9053891e-02 -2.5414938e-01 0.0000000e+00 
-1.5635868e-02 -2.5444361e-01 0.0000000e+00 
-1.2217971e-02 -2.5474003e-01 0.0000000e+00 
-2.2877833e-02 -2.5841862e-01 0.0000000e+00 
-1.9451230e-02 -2.5871223e-01 0.0000000e+00 
-1.6025223e-02 -2.5900785e-01 0.0000000e+00 
-1.2599333e-02 -2.5930557e-01 0.0000000e+00 
-2.3284396e-02 -2.6299047e-01 0.0000000e+00 
-1.9850194e-02 -2.6328550e-01 0.0000000e+00 
-1.6416563e-02 -2.6358244e-01 0.0000000e+00 
-1.2983043e-02 -2.6388139e-01 0.0000000e+00 
-2.3692161e-02 -2.6757231e-01 0.0000000e+00 
-2.0250708e-02 -2.6786869e-01 0.0000000e+00 
-1.6809806e-02 -2.6816691e-01 0.0000000e+00 
-1.3369005e-02 -2.6846703e-01 0.0000000e+00 
-2.4101063e-02 -2.7216368e-01 0.0000000e+00 
-2.0652701e-02 -2.7246136e-01 0.0000000e+00 
-1.7204868e-02 -2.7276079e-01 0.0000000e+00 
-1.3757128e-02 -2.7306203e-01 0.0000000e+00 
-2.4511047e-02 -2.7676413e-01 0.0000000e+00 
-2.1056104e-02 -2.7706306e-01 0.0000000e+00 
-1.7601669e-02 -2.7736364e-01 0.0000000e+00 
-1.4147321e-02 -2.7766595e-01 0.0000000e+00 
-2.4922054e-02 -2.8137323e-01 0.0000000e+00 
-2.1460850e-02 -2.8167334e-01 0.0000000e+00 
-1.8000132e-02 -2.8197503e-01 0.0000000e+00 
-1.4539494e-02 -2.8227836e-01 0.0000000e+00 
-2.5334031e-02 -2.8599056e-01 0.0000000e+00 
-2.1866873e-02 -2.8629180e-01 0.0000000e+00 
-1.8400180e-02 -2.8659454e-01 0.0000000e+00 
-1.4933561e-02 -2.8689884e-01 0.0000000e+00 
-2.5746925e-02 -2.9061571e-01 0.0000000e+00 
-2.2274110e-02 -2.9091803e-01 0.0000000e+00 
-1.8801740e-02 -2.9122176e-01 0.0000000e+00 
-1.5329438e-02 -2.9152699e-01 0.0000000e+00 
-2.6160685e-02 -2.9524829e-01 0.0000000e+00 
-2.2682499e-02 -2.9555163e-01 0.0000000e+00 
-1.9204741e-02 -2.9585632e-01 0.0000000e+00 
-1.5727043e-02 -2.9616242e-01 0.0000000e+00 
-2.6575261e-02 -2.9988792e-01 0.0000000e+00 
-2.3091982e-02 -3.0019224e-01 0.0000000e+00 
-1.9609112e-02 -3.0049783e-01 0.0000000e+00 
-1.6126297e-02 -3.0080476e-01 0.0000000e+00 
-2.6990604e-02 -3.0453424e-01 0.0000000e+00 
-2.3502501e-02 -3.0483948e-01 0.0000000e+00 
-2.0014787e-02 -3.0514593e-01 0.0000000e+00 
-1.6527123e-02 -3.0545365e-01 0.0000000e+00 
-2.7406669e-02 -3.0918690e-01 0.0000000e+00 
-2.3913999e-02 -3.0949301e-01 0.0000000e+00 
-2.0421701e-02 -3.0980027e-01 0.0000000e+00 
-1.6929447e-02 -3.1010874e-01 0.0000000e+00 
-2.7823415e-02 -3.1384554e-01 0.0000000e+00 
-2.4326425e-02 -3.1415249e-01 0.0000000e+00 
-2.0829789e-02 -3.1446052e-01 0.0000000e+00 
-1.7333193e-02 -3.1476969e-01 0.0000000e+00 
-2.8240798e-02 -3.1850986e-01 0.0000000e+00 
-2.4739727e-02 -3.1881759e-01 0.0000000e+00 
-2.1238992e-02 -3.1912635e-01 0.0000000e+00 
-1.7738293e-02 -3.1943619e-01 0.0000000e+00 
-2.8658779e-02 -3.2317952e-01 0.0000000e+00 
-2.5153854e-02 -3.2348801e-01 0.0000000e+00 
-2.1649251e-02 -3.2379745e-01 0.0000000e+00 
-1.8144678e-02 -3.2410791e-01 0.0000000e+00 
-2.9077317e-02 -3.2785424e-01 0.0000000e+00 
-2.5568759e-02 -3.2816343e-01 0.0000000e+00 
-2.2060509e-02 -3.2847353e-01 0.0000000e+00 
-1.8552284e-02 -3.2878458e-01 0.0000000e+00 
-2.9496372e-02 -3.3253372e-01 0.0000000e+00 
-2.5984396e-02 -3.3284357e-01 0.0000000e+00 
-2.2472711e-02 -3.3315428e-01 0.0000000e+00 
-1.8961048e-02 -3.3346589e-01 0.0000000e+00 
-2.9915908e-02 -3.3721767e-01 0.0000000e+00 
-2.6400718e-02 -3.3752816e-01 0.0000000e+00 
-2.2885805e-02 -3.3783944e-01 0.0000000e+00 
-1.9370910e-02 -3.3815157e-01 0.0000000e+00 
-3.0335890e-02 -3.4190584e-01 0.0000000e+00 
-2.6817683e-02 -3.4221691e-01 0.0000000e+00 
-2.3299739e-02 -3.4252874e-01 0.0000000e+00 
-1.9781809e-02 -3.4284136e-01 0.0000000e+00 
-3.0756285e-02 -3.4659795e-01 0.0000000e+00 
-2.7235250e-02 -3.4690958e-01 0.0000000e+00 
-2.3714464e-02 -3.4722192e-01 0.0000000e+00 
-2.0193688e-02 -3.4753499e-01 0.0000000e+00 
-3.1177062e-02 -3.5129376e-01 0.0000000e+00 
-2.7653379e-02 -3.5160592e-01 0.0000000e+00 
-2.4129932e-02 -3.5191873e-01 0.0000000e+00 
-2.0606491e-02 -3.5223224e-01 0.0000000e+00 
-3.1598191e-02 -3.5599304e-01 0.0000000e+00 
-2.8072033e-02 -3.5630568e-01 0.0000000e+00 
-2.4546097e-02 -3.5661894e-01 0.0000000e+00 
-2.1020166e-02 -3.5693285e-01 0.0000000e+00 
-3.2019642e-02 -3.6069555e-01 0.0000000e+00 
-2.8491174e-02 -3.6100865e-01 0.0000000e+00 
-2.4962917e-02 -3.6132232e-01 0.0000000e+00 
-2.1434661e-02 -3.6163661e-01 0.0000000e+00 
-3.2441390e-02 -3.6540108e-01 0.0000000e+00 
-2.8910770e-02 -3.6571461e-01 0.0000000e+00 
-2.5380349e-02 -3.6602867e-01 0.0000000e+00 
-2.1849926e-02 -3.6634330e-01 0.0000000e+00 
-3.2863408e-02 -3.7010942e-01 0.0000000e+00 
-2.9330787e-02 -3.7042335e-01 0.0000000e+00 
-2.5798352e-02 -3.7073777e-01 0.0000000e+00 
-2.2265914e-02 -3.7105272e-01 0.0000000e+00 
-3.3285672e-02 -3.7482038e-01 0.0000000e+00 
-2.9751193e-02 -3.7513467e-01 0.0000000e+00 
-2.6216889e-02 -3.7544943e-01 0.0000000e+00 
-2.2682580e-02 -3.7576468e-01 0.0000000e+00 
-3.3708159e-02 -3.7953375e-01 0.0000000e+00 
-3.0171959e-02 -3.7984839e-01 0.0000000e+00 
-2.6635922e-02 -3.8016346e-01 0.0000000e+00 
-2.3099879e-02 -3.8047899e-01 0.0000000e+00 